 Entering Gaussian System, Link 0=/home/pcmt/gaussian/g16.C.01/g16/g16
 AtFile(1): /home/vallet/basis/U-ECP60MWB_SEG
 AtFile(1): /home/vallet/basis/U-ECP60MWB
 Initial command:
 /home/pcmt/gaussian/g16.C.01/g16/l1.exe "/state/partition2/vallet/848158.phlam-s-sakura/Gau-55983.inp" -scrdir="/state/partition2/vallet/848158.phlam-s-sakura/"
 Entering Link 1 = /home/pcmt/gaussian/g16.C.01/g16/l1.exe PID=     55984.
  
 Copyright (c) 1988-2019, Gaussian, Inc.  All Rights Reserved.
  
 This is part of the Gaussian(R) 16 program.  It is based on
 the Gaussian(R) 09 system (copyright 2009, Gaussian, Inc.),
 the Gaussian(R) 03 system (copyright 2003, Gaussian, Inc.),
 the Gaussian(R) 98 system (copyright 1998, Gaussian, Inc.),
 the Gaussian(R) 94 system (copyright 1995, Gaussian, Inc.),
 the Gaussian 92(TM) system (copyright 1992, Gaussian, Inc.),
 the Gaussian 90(TM) system (copyright 1990, Gaussian, Inc.),
 the Gaussian 88(TM) system (copyright 1988, Gaussian, Inc.),
 the Gaussian 86(TM) system (copyright 1986, Carnegie Mellon
 University), and the Gaussian 82(TM) system (copyright 1983,
 Carnegie Mellon University). Gaussian is a federally registered
 trademark of Gaussian, Inc.
  
 This software contains proprietary and confidential information,
 including trade secrets, belonging to Gaussian, Inc.
  
 This software is provided under written license and may be
 used, copied, transmitted, or stored only in accord with that
 written license.
  
 The following legend is applicable only to US Government
 contracts under FAR:
  
                    RESTRICTED RIGHTS LEGEND
  
 Use, reproduction and disclosure by the US Government is
 subject to restrictions as set forth in subparagraphs (a)
 and (c) of the Commercial Computer Software - Restricted
 Rights clause in FAR 52.227-19.
  
 Gaussian, Inc.
 340 Quinnipiac St., Bldg. 40, Wallingford CT 06492
  
  
 ---------------------------------------------------------------
 Warning -- This program may not be used in any manner that
 competes with the business of Gaussian, Inc. or will provide
 assistance to any competitor of Gaussian, Inc.  The licensee
 of this program is prohibited from giving any competitor of
 Gaussian, Inc. access to this program.  By using this program,
 the user acknowledges that Gaussian, Inc. is engaged in the
 business of creating and licensing software in the field of
 computational chemistry and represents and warrants to the
 licensee that it is not a competitor of Gaussian, Inc. and that
 it will not use this program in any manner prohibited above.
 ---------------------------------------------------------------
  

 Cite this work as:
 Gaussian 16, Revision C.01,
 M. J. Frisch, G. W. Trucks, H. B. Schlegel, G. E. Scuseria, 
 M. A. Robb, J. R. Cheeseman, G. Scalmani, V. Barone, 
 G. A. Petersson, H. Nakatsuji, X. Li, M. Caricato, A. V. Marenich, 
 J. Bloino, B. G. Janesko, R. Gomperts, B. Mennucci, H. P. Hratchian, 
 J. V. Ortiz, A. F. Izmaylov, J. L. Sonnenberg, D. Williams-Young, 
 F. Ding, F. Lipparini, F. Egidi, J. Goings, B. Peng, A. Petrone, 
 T. Henderson, D. Ranasinghe, V. G. Zakrzewski, J. Gao, N. Rega, 
 G. Zheng, W. Liang, M. Hada, M. Ehara, K. Toyota, R. Fukuda, 
 J. Hasegawa, M. Ishida, T. Nakajima, Y. Honda, O. Kitao, H. Nakai, 
 T. Vreven, K. Throssell, J. A. Montgomery, Jr., J. E. Peralta, 
 F. Ogliaro, M. J. Bearpark, J. J. Heyd, E. N. Brothers, K. N. Kudin, 
 V. N. Staroverov, T. A. Keith, R. Kobayashi, J. Normand, 
 K. Raghavachari, A. P. Rendell, J. C. Burant, S. S. Iyengar, 
 J. Tomasi, M. Cossi, J. M. Millam, M. Klene, C. Adamo, R. Cammi, 
 J. W. Ochterski, R. L. Martin, K. Morokuma, O. Farkas, 
 J. B. Foresman, and D. J. Fox, Gaussian, Inc., Wallingford CT, 2019.
 
 ******************************************
 Gaussian 16:  ES64L-G16RevC.01  3-Jul-2019
                11-Jan-2022 
 ******************************************
 %mem=8000Mb
 %NProc=4
 Will use up to    4 processors via shared memory.
 %chk=gs-uo2_cl2.pbe0-d3.optg.chk
 ----------------------------------------------------------------------
 #p PBE1PBE/GEN GFInput GFPrint 5D 7F IOP(6/7=3, 4/69=2, 6/10=1) Pseudo
 =Read EmpiricalDispersion=GD3BJ Symm=(Loose) Int=(UltraFine) Guess=(Ha
 rris) Scf=(NoVarAcc,MaxCycle=100,conver=8) Opt=Tight
 ----------------------------------------------------------------------
 1/7=10,18=20,19=15,26=4,38=1/1,3;
 2/9=110,12=2,17=4,18=3,40=1/2;
 3/5=7,8=11,11=2,16=1,17=8,24=110,25=1,30=1,71=1,74=-13,75=-5,124=41/1,2,3;
 4/11=8,69=2/1;
 5/5=2,6=8,7=100,38=1/2;
 6/7=3,8=2,9=2,10=1,28=1/1;
 7//1,2,3,16;
 1/7=10,18=20,19=15,26=4/3(2);
 2/9=110/2;
 99//99;
 2/9=110/2;
 3/5=7,6=1,8=11,11=2,16=1,17=8,25=1,30=1,71=1,74=-13,75=-5,82=7,124=41/1,2,3;
 4/5=5,11=8,16=3,69=2/1;
 5/5=2,6=8,7=100,38=1/2;
 7//1,2,3,16;
 1/7=10,18=20,19=15,26=4/3(-5);
 2/9=110/2;
 6/7=3,8=2,9=2,10=1,19=2,28=1/1;
 99/9=1/99;
 Leave Link    1 at Tue Jan 11 14:40:26 2022, MaxMem=  1048576000 cpu:               3.6 elap:               4.3
 (Enter /home/pcmt/gaussian/g16.C.01/g16/l101.exe)
 ---------------------------
 [UO2Cl4]2- - PBE0+D3BJ - GS
 ---------------------------
 Symbolic Z-matrix:
 Charge =  0 Multiplicity = 1
 U                     0.        0.28722   0. 
 O                    -1.77414   0.31429   0. 
 O                     1.77414   0.31429   0. 
 Cl                    0.       -1.10604  -2.07747 
 Cl                    0.       -1.10604   2.07747 
 
 ITRead=  0  0  0  0  0
 MicOpt= -1 -1 -1 -1 -1
 NAtoms=      5 NQM=        5 NQMF=       0 NMMI=      0 NMMIF=      0
                NMic=       0 NMicF=      0.
                    Isotopes and Nuclear Properties:
 (Nuclear quadrupole moments (NQMom) in fm**2, nuclear magnetic moments (NMagM)
  in nuclear magnetons)

  Atom         1           2           3           4           5
 IAtWgt=         238          16          16          35          35
 AtmWgt= 238.0508000  15.9949146  15.9949146  34.9688527  34.9688527
 NucSpn=           0           0           0           3           3
 AtZEff=  -0.0000000  -0.0000000  -0.0000000  -0.0000000  -0.0000000
 NQMom=    0.0000000   0.0000000   0.0000000  -8.1650000  -8.1650000
 NMagM=    0.0000000   0.0000000   0.0000000   0.8218740   0.8218740
 AtZNuc=  92.0000000   8.0000000   8.0000000  17.0000000  17.0000000
 Leave Link  101 at Tue Jan 11 14:41:28 2022, MaxMem=  1048576000 cpu:              55.2 elap:              61.6
 (Enter /home/pcmt/gaussian/g16.C.01/g16/l103.exe)

 GradGradGradGradGradGradGradGradGradGradGradGradGradGradGradGradGradGrad
 Berny optimization.
 Initialization pass.
                           ----------------------------
                           !    Initial Parameters    !
                           ! (Angstroms and Degrees)  !
 --------------------------                            --------------------------
 ! Name  Definition              Value          Derivative Info.                !
 --------------------------------------------------------------------------------
 ! R1    R(1,2)                  1.7743         estimate D2E/DX2                !
 ! R2    R(1,3)                  1.7743         estimate D2E/DX2                !
 ! R3    R(1,4)                  2.5014         estimate D2E/DX2                !
 ! R4    R(1,5)                  2.5014         estimate D2E/DX2                !
 ! A1    A(2,1,4)               90.4869         estimate D2E/DX2                !
 ! A2    A(2,1,5)               90.4869         estimate D2E/DX2                !
 ! A3    A(3,1,4)               90.4869         estimate D2E/DX2                !
 ! A4    A(3,1,5)               90.4869         estimate D2E/DX2                !
 ! A5    A(4,1,5)              112.3043         estimate D2E/DX2                !
 ! A6    L(2,1,3,4,-1)         180.9738         estimate D2E/DX2                !
 ! A7    L(2,1,3,4,-2)         178.548          estimate D2E/DX2                !
 ! D1    D(2,1,5,4)             90.726          estimate D2E/DX2                !
 ! D2    D(3,1,5,4)            -90.726          estimate D2E/DX2                !
 --------------------------------------------------------------------------------
 Trust Radius=3.00D-01 FncErr=1.00D-07 GrdErr=1.00D-06 EigMax=2.50D+02 EigMin=1.00D-04
 Number of steps in this run=     23 maximum allowed number of steps=    100.
 GradGradGradGradGradGradGradGradGradGradGradGradGradGradGradGradGradGrad

 Leave Link  103 at Tue Jan 11 14:41:29 2022, MaxMem=  1048576000 cpu:               1.5 elap:               1.6
 (Enter /home/pcmt/gaussian/g16.C.01/g16/l202.exe)
                          Input orientation:                          
 ---------------------------------------------------------------------
 Center     Atomic      Atomic             Coordinates (Angstroms)
 Number     Number       Type             X           Y           Z
 ---------------------------------------------------------------------
      1         92           0        0.000000    0.287220    0.000000
      2          8           0       -1.774140    0.314290    0.000000
      3          8           0        1.774140    0.314290    0.000000
      4         17           0        0.000000   -1.106040   -2.077470
      5         17           0        0.000000   -1.106040    2.077470
 ---------------------------------------------------------------------
                    Distance matrix (angstroms):
                    1          2          3          4          5
     1  U    0.000000
     2  O    1.774347   0.000000
     3  O    1.774347   3.548280   0.000000
     4  Cl   2.501411   3.079089   3.079089   0.000000
     5  Cl   2.501411   3.079089   3.079089   4.154940   0.000000
 Stoichiometry    Cl2O2U
 Framework group  C2V[C2(U),SGV(O2),SGV'(Cl2)]
 Deg. of freedom     4
 Full point group                 C2V     NOp   4
 Largest Abelian subgroup         C2V     NOp   4
 Largest concise Abelian subgroup C2V     NOp   4
                         Standard orientation:                         
 ---------------------------------------------------------------------
 Center     Atomic      Atomic             Coordinates (Angstroms)
 Number     Number       Type             X           Y           Z
 ---------------------------------------------------------------------
      1         92           0       -0.000000    0.000000    0.330547
      2          8           0        0.000000    1.774140    0.357617
      3          8           0       -0.000000   -1.774140    0.357617
      4         17           0        2.077470   -0.000000   -1.062713
      5         17           0       -2.077470    0.000000   -1.062713
 ---------------------------------------------------------------------
 Rotational constants (GHZ):           2.4176024           1.2554966           1.2320489
 Leave Link  202 at Tue Jan 11 14:41:30 2022, MaxMem=  1048576000 cpu:               1.1 elap:               0.8
 (Enter /home/pcmt/gaussian/g16.C.01/g16/l301.exe)
 General basis read from cards:  (5D, 7F)
 Centers:       1
 S 3 1.00
     Exponent=  1.2098082000D+04 Coefficients=  1.0200000000D-04
     Exponent=  1.8337573000D+03 Coefficients=  7.7100000000D-04
     Exponent=  3.5168632000D+02 Coefficients=  2.9690000000D-03
 S 1 1.00
     Exponent=  1.0431426000D+02 Coefficients=  1.0000000000D+00
 S 3 1.00
     Exponent=  6.0905822000D+01 Coefficients=  4.9868000000D-02
     Exponent=  3.5515086000D+01 Coefficients= -2.4531300000D-01
     Exponent=  2.0891227000D+01 Coefficients=  7.2384700000D-01
 S 1 1.00
     Exponent=  1.0184647000D+01 Coefficients=  1.0000000000D+00
 S 1 1.00
     Exponent=  2.8518510000D+00 Coefficients=  1.0000000000D+00
 S 1 1.00
     Exponent=  1.5316160000D+00 Coefficients=  1.0000000000D+00
 S 1 1.00
     Exponent=  6.1620300000D-01 Coefficients=  1.0000000000D+00
 S 1 1.00
     Exponent=  2.7949400000D-01 Coefficients=  1.0000000000D+00
 S 1 1.00
     Exponent=  5.7253000000D-02 Coefficients=  1.0000000000D+00
 S 1 1.00
     Exponent=  2.3443000000D-02 Coefficients=  1.0000000000D+00
 P 5 1.00
     Exponent=  2.9068451000D+03 Coefficients=  8.8000000000D-05
     Exponent=  6.9440053000D+02 Coefficients=  7.3200000000D-04
     Exponent=  2.2463479000D+02 Coefficients=  3.4140000000D-03
     Exponent=  8.0520526000D+01 Coefficients=  1.1099000000D-02
     Exponent=  2.4080211000D+01 Coefficients=  2.5216000000D-02
 P 1 1.00
     Exponent=  1.4077580000D+01 Coefficients=  1.0000000000D+00
 P 1 1.00
     Exponent=  8.2658460000D+00 Coefficients=  1.0000000000D+00
 P 1 1.00
     Exponent=  3.4236070000D+00 Coefficients=  1.0000000000D+00
 P 1 1.00
     Exponent=  1.7084170000D+00 Coefficients=  1.0000000000D+00
 P 1 1.00
     Exponent=  6.5504600000D-01 Coefficients=  1.0000000000D+00
 P 1 1.00
     Exponent=  2.8375500000D-01 Coefficients=  1.0000000000D+00
 P 1 1.00
     Exponent=  1.0181400000D-01 Coefficients=  1.0000000000D+00
 P 1 1.00
     Exponent=  3.0535000000D-02 Coefficients=  1.0000000000D+00
 D 6 1.00
     Exponent=  4.4901953000D+02 Coefficients=  5.0000000000D-05
     Exponent=  1.5635695000D+02 Coefficients=  3.2200000000D-04
     Exponent=  6.0242439000D+01 Coefficients=  1.7770000000D-03
     Exponent=  1.7772317000D+01 Coefficients=  2.5385000000D-02
     Exponent=  1.0454304000D+01 Coefficients= -8.9378000000D-02
     Exponent=  3.5834330000D+00 Coefficients=  4.4479900000D-01
 D 1 1.00
     Exponent=  1.7637240000D+00 Coefficients=  1.0000000000D+00
 D 1 1.00
     Exponent=  7.8403000000D-01 Coefficients=  1.0000000000D+00
 D 1 1.00
     Exponent=  2.7612700000D-01 Coefficients=  1.0000000000D+00
 D 1 1.00
     Exponent=  8.6980000000D-02 Coefficients=  1.0000000000D+00
 F 5 1.00
     Exponent=  1.0528793000D+02 Coefficients=  2.2800000000D-04
     Exponent=  3.5101181000D+01 Coefficients=  2.3080000000D-03
     Exponent=  1.4564138000D+01 Coefficients=  9.2530000000D-03
     Exponent=  4.6518850000D+00 Coefficients=  1.3694900000D-01
     Exponent=  2.2559730000D+00 Coefficients=  3.3980100000D-01
 F 1 1.00
     Exponent=  1.0102740000D+00 Coefficients=  1.0000000000D+00
 F 1 1.00
     Exponent=  4.1168000000D-01 Coefficients=  1.0000000000D+00
 F 1 1.00
     Exponent=  1.4412000000D-01 Coefficients=  1.0000000000D+00
 G 4 1.00
     Exponent=  1.0528793000D+02 Coefficients=  1.3700000000D-04
     Exponent=  3.5101181000D+01 Coefficients=  1.8310000000D-03
     Exponent=  1.4564138000D+01 Coefficients=  1.9940000000D-02
     Exponent=  4.6518850000D+00 Coefficients=  1.1075800000D-01
 G 1 1.00
     Exponent=  2.2559730000D+00 Coefficients=  1.0000000000D+00
 G 1 1.00
     Exponent=  1.0102740000D+00 Coefficients=  1.0000000000D+00
 ****
 Centers:       4      5
 Def2TZVP
 ****
 Centers:       2      3
 Def2TZVP
 ****
 ======================================================================================================
                                       Pseudopotential Parameters
 ======================================================================================================
  Center     Atomic      Valence      Angular      Power
  Number     Number     Electrons     Momentum     of R      Exponent        Coefficient   SO-Coeffient
 ======================================================================================================
    1         92           32
                                      H and up 
                                                     2        1.0000000        0.00000000    0.00000000
                                      S - H
                                                     2       16.4140387      536.51662778    0.00000000
                                      P - H
                                                     2        9.0605561      169.54492465    0.00000000
                                      D - H
                                                     2        8.8318320      142.61559837    0.00000000
                                      F - H
                                                     2        7.0185163       60.39307602    0.00000000
                                      G - H
                                                     2       12.8040884      -60.12998958    0.00000000
    2          8
                                   No pseudopotential on this center.
    3          8
                                   No pseudopotential on this center.
    4         17
                                   No pseudopotential on this center.
    5         17
                                   No pseudopotential on this center.
 ======================================================================================================
 Ernie: Thresh=  0.10000D-02 Tol=  0.10000D-05 Strict=F.
 AO basis set in the form of general basis input (Overlap normalization):
      1 0
 S   3 1.00       0.000000000000
      0.1209808200D+05  0.2884168448D-01
      0.1833757300D+04  0.2180092033D+00
      0.3516863200D+03  0.8395192276D+00
 S   3 1.00       0.000000000000
      0.6090582200D+02  0.9338504807D-01
      0.3551508600D+02 -0.4593840999D+00
      0.2089122700D+02  0.1355508280D+01
 S   1 1.00       0.000000000000
      0.1043142600D+03  0.1000000000D+01
 S   1 1.00       0.000000000000
      0.1018464700D+02  0.1000000000D+01
 S   1 1.00       0.000000000000
      0.2851851000D+01  0.1000000000D+01
 S   1 1.00       0.000000000000
      0.1531616000D+01  0.1000000000D+01
 S   1 1.00       0.000000000000
      0.6162030000D+00  0.1000000000D+01
 S   1 1.00       0.000000000000
      0.2794940000D+00  0.1000000000D+01
 S   1 1.00       0.000000000000
      0.5725300000D-01  0.1000000000D+01
 S   1 1.00       0.000000000000
      0.2344300000D-01  0.1000000000D+01
 P   5 1.00       0.000000000000
      0.2906845100D+04  0.2490724940D-02
      0.6944005300D+03  0.2071830291D-01
      0.2246347900D+03  0.9662880620D-01
      0.8052052600D+02  0.3141426831D+00
      0.2408021100D+02  0.7137059101D+00
 P   1 1.00       0.000000000000
      0.1407758000D+02  0.1000000000D+01
 P   1 1.00       0.000000000000
      0.8265846000D+01  0.1000000000D+01
 P   1 1.00       0.000000000000
      0.3423607000D+01  0.1000000000D+01
 P   1 1.00       0.000000000000
      0.1708417000D+01  0.1000000000D+01
 P   1 1.00       0.000000000000
      0.6550460000D+00  0.1000000000D+01
 P   1 1.00       0.000000000000
      0.2837550000D+00  0.1000000000D+01
 P   1 1.00       0.000000000000
      0.1018140000D+00  0.1000000000D+01
 P   1 1.00       0.000000000000
      0.3053500000D-01  0.1000000000D+01
 D   6 1.00       0.000000000000
      0.4490195300D+03  0.1244413406D-03
      0.1563569500D+03  0.8014022332D-03
      0.6024243900D+02  0.4422645243D-02
      0.1777231700D+02  0.6317886860D-01
      0.1045430400D+02 -0.2224463627D+00
      0.3583433000D+01  0.1107027677D+01
 D   1 1.00       0.000000000000
      0.1763724000D+01  0.1000000000D+01
 D   1 1.00       0.000000000000
      0.7840300000D+00  0.1000000000D+01
 D   1 1.00       0.000000000000
      0.2761270000D+00  0.1000000000D+01
 D   1 1.00       0.000000000000
      0.8698000000D-01  0.1000000000D+01
 F   5 1.00       0.000000000000
      0.1052879300D+03  0.5015876177D-03
      0.3510118100D+02  0.5077474656D-02
      0.1456413800D+02  0.2035609748D-01
      0.4651885000D+01  0.3012803625D+00
      0.2255973000D+01  0.7475437460D+00
 F   1 1.00       0.000000000000
      0.1010274000D+01  0.1000000000D+01
 F   1 1.00       0.000000000000
      0.4116800000D+00  0.1000000000D+01
 F   1 1.00       0.000000000000
      0.1441200000D+00  0.1000000000D+01
 G   4 1.00       0.000000000000
      0.1052879300D+03  0.1132460043D-02
      0.3510118100D+02  0.1513528715D-01
      0.1456413800D+02  0.1648266662D+00
      0.4651885000D+01  0.9155402153D+00
 G   1 1.00       0.000000000000
      0.2255973000D+01  0.1000000000D+01
 G   1 1.00       0.000000000000
      0.1010274000D+01  0.1000000000D+01
 ****
      2 0
 S   6 1.00       0.000000000000
      0.2703238263D+05  0.5722733521D-03
      0.4052387139D+04  0.4435323349D-02
      0.9223272271D+03  0.2302010771D-01
      0.2612407099D+03  0.9282249067D-01
      0.8535464135D+02  0.2937850001D+00
      0.3103503524D+02  0.6740160450D+00
 S   2 1.00       0.000000000000
      0.1226086073D+02  0.6383993703D+00
      0.4998707601D+01  0.3953458713D+00
 S   1 1.00       0.000000000000
      0.1170310816D+01  0.1000000000D+01
 S   1 1.00       0.000000000000
      0.4647474099D+00  0.1000000000D+01
 S   1 1.00       0.000000000000
      0.1850453636D+00  0.1000000000D+01
 P   4 1.00       0.000000000000
      0.6327495480D+02  0.1201833222D-01
      0.1462704938D+02  0.8300542179D-01
      0.4450122346D+01  0.3199174393D+00
      0.1527579965D+01  0.7071554292D+00
 P   1 1.00       0.000000000000
      0.5293511794D+00  0.1000000000D+01
 P   1 1.00       0.000000000000
      0.1747842127D+00  0.1000000000D+01
 D   1 1.00       0.000000000000
      0.2314000000D+01  0.1000000000D+01
 D   1 1.00       0.000000000000
      0.6450000000D+00  0.1000000000D+01
 F   1 1.00       0.000000000000
      0.1428000000D+01  0.1000000000D+01
 ****
      3 0
 S   6 1.00       0.000000000000
      0.2703238263D+05  0.5722733521D-03
      0.4052387139D+04  0.4435323349D-02
      0.9223272271D+03  0.2302010771D-01
      0.2612407099D+03  0.9282249067D-01
      0.8535464135D+02  0.2937850001D+00
      0.3103503524D+02  0.6740160450D+00
 S   2 1.00       0.000000000000
      0.1226086073D+02  0.6383993703D+00
      0.4998707601D+01  0.3953458713D+00
 S   1 1.00       0.000000000000
      0.1170310816D+01  0.1000000000D+01
 S   1 1.00       0.000000000000
      0.4647474099D+00  0.1000000000D+01
 S   1 1.00       0.000000000000
      0.1850453636D+00  0.1000000000D+01
 P   4 1.00       0.000000000000
      0.6327495480D+02  0.1201833222D-01
      0.1462704938D+02  0.8300542179D-01
      0.4450122346D+01  0.3199174393D+00
      0.1527579965D+01  0.7071554292D+00
 P   1 1.00       0.000000000000
      0.5293511794D+00  0.1000000000D+01
 P   1 1.00       0.000000000000
      0.1747842127D+00  0.1000000000D+01
 D   1 1.00       0.000000000000
      0.2314000000D+01  0.1000000000D+01
 D   1 1.00       0.000000000000
      0.6450000000D+00  0.1000000000D+01
 F   1 1.00       0.000000000000
      0.1428000000D+01  0.1000000000D+01
 ****
      4 0
 S   7 1.00       0.000000000000
      0.6950799094D+05  0.5145738965D-03
      0.1042615688D+05  0.3978134481D-02
      0.2373233406D+04  0.2045617867D-01
      0.6715642007D+03  0.8014810289D-01
      0.2184199979D+03  0.2345477032D+00
      0.7757224971D+02  0.4454336858D+00
      0.2888881528D+02  0.3546684250D+00
 S   3 1.00       0.000000000000
      0.1271052718D+03  0.1129368805D+00
      0.3933958296D+02  0.4837351421D+00
      0.7674067999D+01 -0.1229229739D+01
 S   2 1.00       0.000000000000
      0.3874562763D+01  0.6729682164D+00
      0.1838583257D+01  0.3495605141D+00
 S   1 1.00       0.000000000000
      0.5022905754D+00  0.1000000000D+01
 S   1 1.00       0.000000000000
      0.1796272342D+00  0.1000000000D+01
 P   5 1.00       0.000000000000
      0.6665042328D+03  0.3350250820D-02
      0.1576424169D+03  0.2676397041D-01
      0.5026252098D+02  0.1236268236D+00
      0.1853607811D+02  0.3584578792D+00
      0.7294053278D+01  0.6167729635D+00
 P   1 1.00       0.000000000000
      0.2943324899D+01  0.1000000000D+01
 P   1 1.00       0.000000000000
      0.1040497082D+01  0.1000000000D+01
 P   1 1.00       0.000000000000
      0.3845641508D+00  0.1000000000D+01
 P   1 1.00       0.000000000000
      0.1306964273D+00  0.1000000000D+01
 D   2 1.00       0.000000000000
      0.4610000000D+01  0.1826583505D+00
      0.1011000000D+01  0.9132917523D+00
 D   1 1.00       0.000000000000
      0.3390000000D+00  0.1000000000D+01
 F   1 1.00       0.000000000000
      0.7060000000D+00  0.1000000000D+01
 ****
      5 0
 S   7 1.00       0.000000000000
      0.6950799094D+05  0.5145738965D-03
      0.1042615688D+05  0.3978134481D-02
      0.2373233406D+04  0.2045617867D-01
      0.6715642007D+03  0.8014810289D-01
      0.2184199979D+03  0.2345477032D+00
      0.7757224971D+02  0.4454336858D+00
      0.2888881528D+02  0.3546684250D+00
 S   3 1.00       0.000000000000
      0.1271052718D+03  0.1129368805D+00
      0.3933958296D+02  0.4837351421D+00
      0.7674067999D+01 -0.1229229739D+01
 S   2 1.00       0.000000000000
      0.3874562763D+01  0.6729682164D+00
      0.1838583257D+01  0.3495605141D+00
 S   1 1.00       0.000000000000
      0.5022905754D+00  0.1000000000D+01
 S   1 1.00       0.000000000000
      0.1796272342D+00  0.1000000000D+01
 P   5 1.00       0.000000000000
      0.6665042328D+03  0.3350250820D-02
      0.1576424169D+03  0.2676397041D-01
      0.5026252098D+02  0.1236268236D+00
      0.1853607811D+02  0.3584578792D+00
      0.7294053278D+01  0.6167729635D+00
 P   1 1.00       0.000000000000
      0.2943324899D+01  0.1000000000D+01
 P   1 1.00       0.000000000000
      0.1040497082D+01  0.1000000000D+01
 P   1 1.00       0.000000000000
      0.3845641508D+00  0.1000000000D+01
 P   1 1.00       0.000000000000
      0.1306964273D+00  0.1000000000D+01
 D   2 1.00       0.000000000000
      0.4610000000D+01  0.1826583505D+00
      0.1011000000D+01  0.9132917523D+00
 D   1 1.00       0.000000000000
      0.3390000000D+00  0.1000000000D+01
 F   1 1.00       0.000000000000
      0.7060000000D+00  0.1000000000D+01
 ****

 AO basis set (Overlap normalization):
 Atom U1       Shell     1 S   3     bf    1 -     1         -0.000000000000         -0.000000000000          0.624643913461
      0.1209808200D+05  0.2884168448D-01
      0.1833757300D+04  0.2180092033D+00
      0.3516863200D+03  0.8395192276D+00
 Atom U1       Shell     2 S   3     bf    2 -     2         -0.000000000000         -0.000000000000          0.624643913461
      0.6090582200D+02  0.9338504807D-01
      0.3551508600D+02 -0.4593840999D+00
      0.2089122700D+02  0.1355508280D+01
 Atom U1       Shell     3 S   1     bf    3 -     3         -0.000000000000         -0.000000000000          0.624643913461
      0.1043142600D+03  0.1000000000D+01
 Atom U1       Shell     4 S   1     bf    4 -     4         -0.000000000000         -0.000000000000          0.624643913461
      0.1018464700D+02  0.1000000000D+01
 Atom U1       Shell     5 S   1     bf    5 -     5         -0.000000000000         -0.000000000000          0.624643913461
      0.2851851000D+01  0.1000000000D+01
 Atom U1       Shell     6 S   1     bf    6 -     6         -0.000000000000         -0.000000000000          0.624643913461
      0.1531616000D+01  0.1000000000D+01
 Atom U1       Shell     7 S   1     bf    7 -     7         -0.000000000000         -0.000000000000          0.624643913461
      0.6162030000D+00  0.1000000000D+01
 Atom U1       Shell     8 S   1     bf    8 -     8         -0.000000000000         -0.000000000000          0.624643913461
      0.2794940000D+00  0.1000000000D+01
 Atom U1       Shell     9 S   1     bf    9 -     9         -0.000000000000         -0.000000000000          0.624643913461
      0.5725300000D-01  0.1000000000D+01
 Atom U1       Shell    10 S   1     bf   10 -    10         -0.000000000000         -0.000000000000          0.624643913461
      0.2344300000D-01  0.1000000000D+01
 Atom U1       Shell    11 P   5     bf   11 -    13         -0.000000000000         -0.000000000000          0.624643913461
      0.2906845100D+04  0.2490724940D-02
      0.6944005300D+03  0.2071830291D-01
      0.2246347900D+03  0.9662880620D-01
      0.8052052600D+02  0.3141426831D+00
      0.2408021100D+02  0.7137059101D+00
 Atom U1       Shell    12 P   1     bf   14 -    16         -0.000000000000         -0.000000000000          0.624643913461
      0.1407758000D+02  0.1000000000D+01
 Atom U1       Shell    13 P   1     bf   17 -    19         -0.000000000000         -0.000000000000          0.624643913461
      0.8265846000D+01  0.1000000000D+01
 Atom U1       Shell    14 P   1     bf   20 -    22         -0.000000000000         -0.000000000000          0.624643913461
      0.3423607000D+01  0.1000000000D+01
 Atom U1       Shell    15 P   1     bf   23 -    25         -0.000000000000         -0.000000000000          0.624643913461
      0.1708417000D+01  0.1000000000D+01
 Atom U1       Shell    16 P   1     bf   26 -    28         -0.000000000000         -0.000000000000          0.624643913461
      0.6550460000D+00  0.1000000000D+01
 Atom U1       Shell    17 P   1     bf   29 -    31         -0.000000000000         -0.000000000000          0.624643913461
      0.2837550000D+00  0.1000000000D+01
 Atom U1       Shell    18 P   1     bf   32 -    34         -0.000000000000         -0.000000000000          0.624643913461
      0.1018140000D+00  0.1000000000D+01
 Atom U1       Shell    19 P   1     bf   35 -    37         -0.000000000000         -0.000000000000          0.624643913461
      0.3053500000D-01  0.1000000000D+01
 Atom U1       Shell    20 D   6     bf   38 -    42         -0.000000000000         -0.000000000000          0.624643913461
      0.4490195300D+03  0.1244413406D-03
      0.1563569500D+03  0.8014022332D-03
      0.6024243900D+02  0.4422645243D-02
      0.1777231700D+02  0.6317886860D-01
      0.1045430400D+02 -0.2224463627D+00
      0.3583433000D+01  0.1107027677D+01
 Atom U1       Shell    21 D   1     bf   43 -    47         -0.000000000000         -0.000000000000          0.624643913461
      0.1763724000D+01  0.1000000000D+01
 Atom U1       Shell    22 D   1     bf   48 -    52         -0.000000000000         -0.000000000000          0.624643913461
      0.7840300000D+00  0.1000000000D+01
 Atom U1       Shell    23 D   1     bf   53 -    57         -0.000000000000         -0.000000000000          0.624643913461
      0.2761270000D+00  0.1000000000D+01
 Atom U1       Shell    24 D   1     bf   58 -    62         -0.000000000000         -0.000000000000          0.624643913461
      0.8698000000D-01  0.1000000000D+01
 Atom U1       Shell    25 F   5     bf   63 -    69         -0.000000000000         -0.000000000000          0.624643913461
      0.1052879300D+03  0.5015876177D-03
      0.3510118100D+02  0.5077474656D-02
      0.1456413800D+02  0.2035609748D-01
      0.4651885000D+01  0.3012803625D+00
      0.2255973000D+01  0.7475437460D+00
 Atom U1       Shell    26 F   1     bf   70 -    76         -0.000000000000         -0.000000000000          0.624643913461
      0.1010274000D+01  0.1000000000D+01
 Atom U1       Shell    27 F   1     bf   77 -    83         -0.000000000000         -0.000000000000          0.624643913461
      0.4116800000D+00  0.1000000000D+01
 Atom U1       Shell    28 F   1     bf   84 -    90         -0.000000000000         -0.000000000000          0.624643913461
      0.1441200000D+00  0.1000000000D+01
 Atom U1       Shell    29 G   4     bf   91 -    99         -0.000000000000         -0.000000000000          0.624643913461
      0.1052879300D+03  0.1132460043D-02
      0.3510118100D+02  0.1513528715D-01
      0.1456413800D+02  0.1648266662D+00
      0.4651885000D+01  0.9155402153D+00
 Atom U1       Shell    30 G   1     bf  100 -   108         -0.000000000000         -0.000000000000          0.624643913461
      0.2255973000D+01  0.1000000000D+01
 Atom U1       Shell    31 G   1     bf  109 -   117         -0.000000000000         -0.000000000000          0.624643913461
      0.1010274000D+01  0.1000000000D+01
 Atom O2       Shell    32 S   6     bf  118 -   118          0.000000000000          3.352638706636          0.675798799653
      0.2703238263D+05  0.5722733521D-03
      0.4052387139D+04  0.4435323349D-02
      0.9223272271D+03  0.2302010771D-01
      0.2612407099D+03  0.9282249067D-01
      0.8535464135D+02  0.2937850001D+00
      0.3103503524D+02  0.6740160450D+00
 Atom O2       Shell    33 S   2     bf  119 -   119          0.000000000000          3.352638706636          0.675798799653
      0.1226086073D+02  0.6383993703D+00
      0.4998707601D+01  0.3953458713D+00
 Atom O2       Shell    34 S   1     bf  120 -   120          0.000000000000          3.352638706636          0.675798799653
      0.1170310816D+01  0.1000000000D+01
 Atom O2       Shell    35 S   1     bf  121 -   121          0.000000000000          3.352638706636          0.675798799653
      0.4647474099D+00  0.1000000000D+01
 Atom O2       Shell    36 S   1     bf  122 -   122          0.000000000000          3.352638706636          0.675798799653
      0.1850453636D+00  0.1000000000D+01
 Atom O2       Shell    37 P   4     bf  123 -   125          0.000000000000          3.352638706636          0.675798799653
      0.6327495480D+02  0.1201833222D-01
      0.1462704938D+02  0.8300542179D-01
      0.4450122346D+01  0.3199174393D+00
      0.1527579965D+01  0.7071554292D+00
 Atom O2       Shell    38 P   1     bf  126 -   128          0.000000000000          3.352638706636          0.675798799653
      0.5293511794D+00  0.1000000000D+01
 Atom O2       Shell    39 P   1     bf  129 -   131          0.000000000000          3.352638706636          0.675798799653
      0.1747842127D+00  0.1000000000D+01
 Atom O2       Shell    40 D   1     bf  132 -   136          0.000000000000          3.352638706636          0.675798799653
      0.2314000000D+01  0.1000000000D+01
 Atom O2       Shell    41 D   1     bf  137 -   141          0.000000000000          3.352638706636          0.675798799653
      0.6450000000D+00  0.1000000000D+01
 Atom O2       Shell    42 F   1     bf  142 -   148          0.000000000000          3.352638706636          0.675798799653
      0.1428000000D+01  0.1000000000D+01
 Atom O3       Shell    43 S   6     bf  149 -   149         -0.000000000000         -3.352638706636          0.675798799653
      0.2703238263D+05  0.5722733521D-03
      0.4052387139D+04  0.4435323349D-02
      0.9223272271D+03  0.2302010771D-01
      0.2612407099D+03  0.9282249067D-01
      0.8535464135D+02  0.2937850001D+00
      0.3103503524D+02  0.6740160450D+00
 Atom O3       Shell    44 S   2     bf  150 -   150         -0.000000000000         -3.352638706636          0.675798799653
      0.1226086073D+02  0.6383993703D+00
      0.4998707601D+01  0.3953458713D+00
 Atom O3       Shell    45 S   1     bf  151 -   151         -0.000000000000         -3.352638706636          0.675798799653
      0.1170310816D+01  0.1000000000D+01
 Atom O3       Shell    46 S   1     bf  152 -   152         -0.000000000000         -3.352638706636          0.675798799653
      0.4647474099D+00  0.1000000000D+01
 Atom O3       Shell    47 S   1     bf  153 -   153         -0.000000000000         -3.352638706636          0.675798799653
      0.1850453636D+00  0.1000000000D+01
 Atom O3       Shell    48 P   4     bf  154 -   156         -0.000000000000         -3.352638706636          0.675798799653
      0.6327495480D+02  0.1201833222D-01
      0.1462704938D+02  0.8300542179D-01
      0.4450122346D+01  0.3199174393D+00
      0.1527579965D+01  0.7071554292D+00
 Atom O3       Shell    49 P   1     bf  157 -   159         -0.000000000000         -3.352638706636          0.675798799653
      0.5293511794D+00  0.1000000000D+01
 Atom O3       Shell    50 P   1     bf  160 -   162         -0.000000000000         -3.352638706636          0.675798799653
      0.1747842127D+00  0.1000000000D+01
 Atom O3       Shell    51 D   1     bf  163 -   167         -0.000000000000         -3.352638706636          0.675798799653
      0.2314000000D+01  0.1000000000D+01
 Atom O3       Shell    52 D   1     bf  168 -   172         -0.000000000000         -3.352638706636          0.675798799653
      0.6450000000D+00  0.1000000000D+01
 Atom O3       Shell    53 F   1     bf  173 -   179         -0.000000000000         -3.352638706636          0.675798799653
      0.1428000000D+01  0.1000000000D+01
 Atom Cl4      Shell    54 S   7     bf  180 -   180          3.925849332000         -0.000000000000         -2.008235906850
      0.6950799094D+05  0.5145738965D-03
      0.1042615688D+05  0.3978134481D-02
      0.2373233406D+04  0.2045617867D-01
      0.6715642007D+03  0.8014810289D-01
      0.2184199979D+03  0.2345477032D+00
      0.7757224971D+02  0.4454336858D+00
      0.2888881528D+02  0.3546684250D+00
 Atom Cl4      Shell    55 S   3     bf  181 -   181          3.925849332000         -0.000000000000         -2.008235906850
      0.1271052718D+03  0.1129368805D+00
      0.3933958296D+02  0.4837351421D+00
      0.7674067999D+01 -0.1229229739D+01
 Atom Cl4      Shell    56 S   2     bf  182 -   182          3.925849332000         -0.000000000000         -2.008235906850
      0.3874562763D+01  0.6729682164D+00
      0.1838583257D+01  0.3495605141D+00
 Atom Cl4      Shell    57 S   1     bf  183 -   183          3.925849332000         -0.000000000000         -2.008235906850
      0.5022905754D+00  0.1000000000D+01
 Atom Cl4      Shell    58 S   1     bf  184 -   184          3.925849332000         -0.000000000000         -2.008235906850
      0.1796272342D+00  0.1000000000D+01
 Atom Cl4      Shell    59 P   5     bf  185 -   187          3.925849332000         -0.000000000000         -2.008235906850
      0.6665042328D+03  0.3350250820D-02
      0.1576424169D+03  0.2676397041D-01
      0.5026252098D+02  0.1236268236D+00
      0.1853607811D+02  0.3584578792D+00
      0.7294053278D+01  0.6167729635D+00
 Atom Cl4      Shell    60 P   1     bf  188 -   190          3.925849332000         -0.000000000000         -2.008235906850
      0.2943324899D+01  0.1000000000D+01
 Atom Cl4      Shell    61 P   1     bf  191 -   193          3.925849332000         -0.000000000000         -2.008235906850
      0.1040497082D+01  0.1000000000D+01
 Atom Cl4      Shell    62 P   1     bf  194 -   196          3.925849332000         -0.000000000000         -2.008235906850
      0.3845641508D+00  0.1000000000D+01
 Atom Cl4      Shell    63 P   1     bf  197 -   199          3.925849332000         -0.000000000000         -2.008235906850
      0.1306964273D+00  0.1000000000D+01
 Atom Cl4      Shell    64 D   2     bf  200 -   204          3.925849332000         -0.000000000000         -2.008235906850
      0.4610000000D+01  0.1826583505D+00
      0.1011000000D+01  0.9132917523D+00
 Atom Cl4      Shell    65 D   1     bf  205 -   209          3.925849332000         -0.000000000000         -2.008235906850
      0.3390000000D+00  0.1000000000D+01
 Atom Cl4      Shell    66 F   1     bf  210 -   216          3.925849332000         -0.000000000000         -2.008235906850
      0.7060000000D+00  0.1000000000D+01
 Atom Cl5      Shell    67 S   7     bf  217 -   217         -3.925849332000          0.000000000000         -2.008235906850
      0.6950799094D+05  0.5145738965D-03
      0.1042615688D+05  0.3978134481D-02
      0.2373233406D+04  0.2045617867D-01
      0.6715642007D+03  0.8014810289D-01
      0.2184199979D+03  0.2345477032D+00
      0.7757224971D+02  0.4454336858D+00
      0.2888881528D+02  0.3546684250D+00
 Atom Cl5      Shell    68 S   3     bf  218 -   218         -3.925849332000          0.000000000000         -2.008235906850
      0.1271052718D+03  0.1129368805D+00
      0.3933958296D+02  0.4837351421D+00
      0.7674067999D+01 -0.1229229739D+01
 Atom Cl5      Shell    69 S   2     bf  219 -   219         -3.925849332000          0.000000000000         -2.008235906850
      0.3874562763D+01  0.6729682164D+00
      0.1838583257D+01  0.3495605141D+00
 Atom Cl5      Shell    70 S   1     bf  220 -   220         -3.925849332000          0.000000000000         -2.008235906850
      0.5022905754D+00  0.1000000000D+01
 Atom Cl5      Shell    71 S   1     bf  221 -   221         -3.925849332000          0.000000000000         -2.008235906850
      0.1796272342D+00  0.1000000000D+01
 Atom Cl5      Shell    72 P   5     bf  222 -   224         -3.925849332000          0.000000000000         -2.008235906850
      0.6665042328D+03  0.3350250820D-02
      0.1576424169D+03  0.2676397041D-01
      0.5026252098D+02  0.1236268236D+00
      0.1853607811D+02  0.3584578792D+00
      0.7294053278D+01  0.6167729635D+00
 Atom Cl5      Shell    73 P   1     bf  225 -   227         -3.925849332000          0.000000000000         -2.008235906850
      0.2943324899D+01  0.1000000000D+01
 Atom Cl5      Shell    74 P   1     bf  228 -   230         -3.925849332000          0.000000000000         -2.008235906850
      0.1040497082D+01  0.1000000000D+01
 Atom Cl5      Shell    75 P   1     bf  231 -   233         -3.925849332000          0.000000000000         -2.008235906850
      0.3845641508D+00  0.1000000000D+01
 Atom Cl5      Shell    76 P   1     bf  234 -   236         -3.925849332000          0.000000000000         -2.008235906850
      0.1306964273D+00  0.1000000000D+01
 Atom Cl5      Shell    77 D   2     bf  237 -   241         -3.925849332000          0.000000000000         -2.008235906850
      0.4610000000D+01  0.1826583505D+00
      0.1011000000D+01  0.9132917523D+00
 Atom Cl5      Shell    78 D   1     bf  242 -   246         -3.925849332000          0.000000000000         -2.008235906850
      0.3390000000D+00  0.1000000000D+01
 Atom Cl5      Shell    79 F   1     bf  247 -   253         -3.925849332000          0.000000000000         -2.008235906850
      0.7060000000D+00  0.1000000000D+01
 Effective core potential in the form of general ECP input:
      1 0
 U1-ECP   5 60
 H component
  1
  2        1.0000000        0.00000000    0.00000000
 S-H projection
  1
  2       16.4140387      536.51662778    0.00000000
 P-H projection
  1
  2        9.0605561      169.54492465    0.00000000
 D-H projection
  1
  2        8.8318320      142.61559837    0.00000000
 F-H projection
  1
  2        7.0185163       60.39307602    0.00000000
 G-H projection
  1
  2       12.8040884      -60.12998958    0.00000000
 
 There are   118 symmetry adapted cartesian basis functions of A1  symmetry.
 There are    42 symmetry adapted cartesian basis functions of A2  symmetry.
 There are    75 symmetry adapted cartesian basis functions of B1  symmetry.
 There are    73 symmetry adapted cartesian basis functions of B2  symmetry.
 There are    92 symmetry adapted basis functions of A1  symmetry.
 There are    37 symmetry adapted basis functions of A2  symmetry.
 There are    63 symmetry adapted basis functions of B1  symmetry.
 There are    61 symmetry adapted basis functions of B2  symmetry.
   253 basis functions,   523 primitive gaussians,   308 cartesian basis functions
    41 alpha electrons       41 beta electrons
       nuclear repulsion energy       522.7105575146 Hartrees.
 IExCor= 1009 DFT=T Ex+Corr=PBE1PBE ExCW=0 ScaHFX=  0.250000
 ScaDFX=  0.750000  0.750000  1.000000  1.000000 ScalE2=  1.000000  1.000000
 IRadAn=      5 IRanWt=     -1 IRanGd=            0 ICorTp=0 IEmpDi=141
 NAtoms=    5 NActive=    5 NUniq=    3 SFac= 2.78D+00 NAtFMM=   60 NAOKFM=F Big=F
 Integral buffers will be    131072 words long.
 Raffenetti 2 integral format.
 Two-electron integral symmetry is turned on.
 R6Disp:  Grimme-D3(BJ) Dispersion energy=       -0.0056251257 Hartrees.
 Nuclear repulsion after empirical dispersion term =      522.7049323889 Hartrees.
 Leave Link  301 at Tue Jan 11 14:41:31 2022, MaxMem=  1048576000 cpu:               1.0 elap:               1.0
 (Enter /home/pcmt/gaussian/g16.C.01/g16/l302.exe)
 NPDir=0 NMtPBC=     1 NCelOv=     1 NCel=       1 NClECP=     1 NCelD=      1
         NCelK=      1 NCelE2=     1 NClLst=     1 CellRange=     0.0.
 One-electron integrals computed using PRISM.
 One-electron integral symmetry used in STVInt
   4 Symmetry operations used in ECPInt.
 ECPInt:  NShTT=    3160 NPrTT=   10748 LenC2=    3033 LenP2D=    7895.
 LDataN:  DoStor=T MaxTD1= 9 Len=  602
 NBasis=   253 RedAO= T EigKep=  6.37D-04  NBF=    92    37    63    61
 NBsUse=   253 1.00D-06 EigRej= -1.00D+00 NBFU=    92    37    63    61
 Precomputing XC quadrature grid using
 IXCGrd= 4 IRadAn=           5 IRanWt=          -1 IRanGd=           0 AccXCQ= 0.00D+00.
 Defaulting to unpruned grid for atomic number  92.
 Generated NRdTot=       0 NPtTot=           0 NUsed=           0 NTot=          32
 NSgBfM=   302   302   302   302   302 MxSgAt=     5 MxSgA2=     5.
 Leave Link  302 at Tue Jan 11 14:41:51 2022, MaxMem=  1048576000 cpu:              26.5 elap:              19.4
 (Enter /home/pcmt/gaussian/g16.C.01/g16/l303.exe)
 DipDrv:  MaxL=1.
 Leave Link  303 at Tue Jan 11 14:41:51 2022, MaxMem=  1048576000 cpu:               0.5 elap:               0.4
 (Enter /home/pcmt/gaussian/g16.C.01/g16/l401.exe)
 ExpMin= 2.34D-02 ExpMax= 6.95D+04 ExpMxC= 1.21D+04 IAcc=3 IRadAn=         5 AccDes= 0.00D+00
 Harris functional with IExCor= 1009 and IRadAn=       5 diagonalized for initial guess.
 HarFok:  IExCor= 1009 AccDes= 0.00D+00 IRadAn=         5 IDoV= 1 UseB2=F ITyADJ=14
 ICtDFT=  3500011 ScaDFX=  1.000000  1.000000  1.000000  1.000000
 Defaulting to unpruned grid for atomic number  92.
 FoFCou: FMM=F IPFlag=           0 FMFlag=      100000 FMFlg1=           0
         NFxFlg=           0 DoJE=T BraDBF=F KetDBF=T FulRan=T
         wScrn=  0.000000 ICntrl=       500 IOpCl=  0 I1Cent=   200000004 NGrid=           0
         NMat0=    1 NMatS0=      1 NMatT0=    0 NMatD0=    1 NMtDS0=    0 NMtDT0=    0
 Petite list used in FoFCou.
 Harris En= -1549.02620370638    
 JPrj=0 DoOrth=F DoCkMO=F.
 Initial guess orbital symmetries:
       Occupied  (B1) (A1) (B2) (A1) (A1) (B1) (A1) (B2) (A1) (B1)
                 (A1) (B1) (B2) (A2) (A1) (B1) (A1) (B2) (A2) (B1)
                 (A1) (A1) (B2) (A1) (B1) (A1) (A1) (B1) (B2) (A2)
                 (B2) (A1) (B1) (A1) (B2) (A1) (B1) (A1) (A2) (B1)
                 (B2)
       Virtual   (A1) (B1) (A1) (B2) (A2) (B1) (A1) (A1) (B2) (B1)
                 (A1) (B1) (B2) (A2) (A1) (B2) (A1) (B2) (A1) (B1)
                 (B2) (A2) (B1) (A1) (A1) (B2) (B1) (A2) (B1) (A1)
                 (B2) (A1) (A2) (B1) (A1) (B2) (B1) (A2) (A1) (B1)
                 (B2) (A1) (A1) (A2) (B2) (B1) (A1) (B2) (A1) (B1)
                 (A1) (A2) (B1) (B2) (A1) (B2) (A1) (B1) (A1) (A1)
                 (B1) (A1) (B1) (B2) (A1) (A2) (B1) (B2) (B1) (B2)
                 (A2) (A1) (A2) (B2) (A2) (A1) (B1) (B2) (A1) (B2)
                 (A1) (A2) (B1) (A1) (B1) (B2) (A1) (B2) (A2) (B1)
                 (A1) (B2) (B1) (A2) (A1) (B1) (A2) (A1) (B2) (B1)
                 (B2) (B1) (A1) (A2) (B1) (A1) (A1) (B2) (B2) (B1)
                 (A1) (A2) (B2) (A2) (B1) (A1) (A2) (A1) (B1) (A1)
                 (B2) (B1) (A1) (A1) (B2) (A2) (B2) (A1) (B1) (A1)
                 (B2) (B2) (B2) (A2) (B1) (A1) (A1) (B1) (A2) (B2)
                 (B1) (A1) (B2) (A2) (A1) (B1) (B2) (A2) (A1) (A1)
                 (B1) (B2) (A1) (B1) (B2) (A2) (B2) (A2) (A1) (A2)
                 (A1) (B2) (B1) (B1) (A1) (A1) (B1) (A1) (B2) (B1)
                 (A1) (B2) (A2) (A1) (B2) (B2) (A1) (A2) (B1) (A1)
                 (B1) (A2) (A1) (B2) (B1) (A1) (A2) (B2) (B1) (A1)
                 (A1) (B1) (A2) (B2) (A1) (A1) (B1) (B2) (A1) (B1)
                 (A1) (A1) (B2) (A1) (B1) (B2) (A1) (A1) (B1) (B2)
                 (A1) (A1)
 The electronic state of the initial guess is 1-A1.
 Leave Link  401 at Tue Jan 11 14:41:55 2022, MaxMem=  1048576000 cpu:               9.8 elap:               4.2
 (Enter /home/pcmt/gaussian/g16.C.01/g16/l502.exe)
 Keep R1 ints in memory in symmetry-blocked form, NReq=646035938.
 FoFCou: FMM=F IPFlag=           0 FMFlag=           0 FMFlg1=           0
         NFxFlg=           0 DoJE=F BraDBF=F KetDBF=F FulRan=T
         wScrn=  0.000000 ICntrl=       600 IOpCl=  0 I1Cent=           0 NGrid=           0
         NMat0=    1 NMatS0=  32131 NMatT0=    0 NMatD0=    1 NMtDS0=    0 NMtDT0=    0
 Petite list used in FoFCou.
 Closed shell SCF:
 Using DIIS extrapolation, IDIIS=  1040.
 NGot=  1048576000 LenX=   918564064 LenY=   918468759
 Requested convergence on RMS density matrix=1.00D-08 within 100 cycles.
 Requested convergence on MAX density matrix=1.00D-06.
 Requested convergence on             energy=1.00D-06.
 No special actions if energy rises.

 Cycle   1  Pass 1  IDiag  1:
 Defaulting to unpruned grid for atomic number  92.
 Defaulting to unpruned grid for atomic number  92.
 Defaulting to unpruned grid for atomic number  92.
 Defaulting to unpruned grid for atomic number  92.
 E= -1546.50053739011    
 DIIS: error= 8.53D-02 at cycle   1 NSaved=   1.
 NSaved= 1 IEnMin= 1 EnMin= -1546.50053739011     IErMin= 1 ErrMin= 8.53D-02
 ErrMax= 8.53D-02  0.00D+00 EMaxC= 1.00D-01 BMatC= 1.77D+00 BMatP= 1.77D+00
 IDIUse=3 WtCom= 1.47D-01 WtEn= 8.53D-01
 Coeff-Com:  0.100D+01
 Coeff-En:   0.100D+01
 Coeff:      0.100D+01
 Gap=     0.218 Goal=   None    Shift=    0.000
 GapD=    0.218 DampG=1.000 DampE=0.250 DampFc=0.2500 IDamp=-1.
 Damping current iteration by 2.50D-01
 RMSDP=1.43D-02 MaxDP=1.25D+00              OVMax= 7.32D-01

 Cycle   2  Pass 1  IDiag  1:
 E= -1544.83693966743     Delta-E=        1.663597722682 Rises=F Damp=T
 DIIS: error= 6.45D-02 at cycle   2 NSaved=   2.
 NSaved= 2 IEnMin= 1 EnMin= -1546.50053739011     IErMin= 2 ErrMin= 6.45D-02
 ErrMax= 6.45D-02  0.00D+00 EMaxC= 1.00D-01 BMatC= 1.56D+00 BMatP= 1.77D+00
 IDIUse=3 WtCom= 3.55D-01 WtEn= 6.45D-01
 Coeff-Com:  0.480D+00 0.520D+00
 Coeff-En:   0.702D+00 0.298D+00
 Coeff:      0.623D+00 0.377D+00
 Gap=    -0.114 Goal=   None    Shift=    0.000
 RMSDP=3.55D-03 MaxDP=1.37D-01 DE= 1.66D+00 OVMax= 8.10D-01

 Cycle   3  Pass 1  IDiag  1:
 E= -1546.48648815936     Delta-E=       -1.649548491938 Rises=F Damp=F
 DIIS: error= 1.09D-01 at cycle   3 NSaved=   3.
 NSaved= 3 IEnMin= 1 EnMin= -1546.50053739011     IErMin= 2 ErrMin= 6.45D-02
 ErrMax= 1.09D-01  0.00D+00 EMaxC= 1.00D-01 BMatC= 1.76D+00 BMatP= 1.56D+00
 IDIUse=2 WtCom= 0.00D+00 WtEn= 1.00D+00
 Coeff-En:   0.502D+00 0.000D+00 0.498D+00
 Coeff:      0.502D+00 0.000D+00 0.498D+00
 Gap=     0.158 Goal=   None    Shift=    0.000
 RMSDP=4.26D-03 MaxDP=1.47D-01 DE=-1.65D+00 OVMax= 5.80D-01

 Cycle   4  Pass 1  IDiag  1:
 E= -1544.63398049211     Delta-E=        1.852507667252 Rises=F Damp=F
 DIIS: error= 1.94D-01 at cycle   4 NSaved=   4.
 NSaved= 4 IEnMin= 1 EnMin= -1546.50053739011     IErMin= 2 ErrMin= 6.45D-02
 ErrMax= 1.94D-01  0.00D+00 EMaxC= 1.00D-01 BMatC= 5.87D+00 BMatP= 1.56D+00
 IDIUse=2 WtCom= 0.00D+00 WtEn= 1.00D+00
 EnCoef did     3 forward-backward iterations
 Coeff-En:   0.495D+00 0.000D+00 0.406D+00 0.990D-01
 Coeff:      0.495D+00 0.000D+00 0.406D+00 0.990D-01
 Gap=     0.066 Goal=   None    Shift=    0.000
 RMSDP=3.04D-03 MaxDP=1.13D-01 DE= 1.85D+00 OVMax= 5.21D-01

 Cycle   5  Pass 1  IDiag  1:
 E= -1547.63398513262     Delta-E=       -3.000004640512 Rises=F Damp=F
 DIIS: error= 4.16D-03 at cycle   5 NSaved=   5.
 NSaved= 5 IEnMin= 5 EnMin= -1547.63398513262     IErMin= 5 ErrMin= 4.16D-03
 ErrMax= 4.16D-03  0.00D+00 EMaxC= 1.00D-01 BMatC= 7.10D-03 BMatP= 1.56D+00
 IDIUse=3 WtCom= 9.58D-01 WtEn= 4.16D-02
 Coeff-Com:  0.268D-01-0.249D-01 0.467D-01-0.141D-01 0.965D+00
 Coeff-En:   0.000D+00 0.000D+00 0.000D+00 0.000D+00 0.100D+01
 Coeff:      0.257D-01-0.238D-01 0.448D-01-0.135D-01 0.967D+00
 Gap=     0.158 Goal=   None    Shift=    0.000
 RMSDP=3.11D-04 MaxDP=2.05D-02 DE=-3.00D+00 OVMax= 2.67D-02

 Cycle   6  Pass 1  IDiag  1:
 E= -1547.63386332557     Delta-E=        0.000121807053 Rises=F Damp=F
 DIIS: error= 8.61D-03 at cycle   6 NSaved=   6.
 NSaved= 6 IEnMin= 5 EnMin= -1547.63398513262     IErMin= 5 ErrMin= 4.16D-03
 ErrMax= 8.61D-03  0.00D+00 EMaxC= 1.00D-01 BMatC= 8.37D-03 BMatP= 7.10D-03
 IDIUse=3 WtCom= 9.58D-01 WtEn= 4.16D-02
 Coeff-Com:  0.144D-01-0.197D-01-0.154D-01-0.113D-01 0.278D+00 0.754D+00
 Coeff-En:   0.000D+00 0.000D+00 0.000D+00 0.000D+00 0.512D+00 0.488D+00
 Coeff:      0.138D-01-0.188D-01-0.148D-01-0.109D-01 0.288D+00 0.743D+00
 Gap=     0.163 Goal=   None    Shift=    0.000
 RMSDP=1.27D-04 MaxDP=8.44D-03 DE= 1.22D-04 OVMax= 1.37D-02

 Cycle   7  Pass 1  IDiag  1:
 E= -1547.63857718240     Delta-E=       -0.004713856830 Rises=F Damp=F
 DIIS: error= 2.60D-03 at cycle   7 NSaved=   7.
 NSaved= 7 IEnMin= 7 EnMin= -1547.63857718240     IErMin= 7 ErrMin= 2.60D-03
 ErrMax= 2.60D-03  0.00D+00 EMaxC= 1.00D-01 BMatC= 1.14D-03 BMatP= 7.10D-03
 IDIUse=3 WtCom= 9.74D-01 WtEn= 2.60D-02
 Coeff-Com:  0.830D-02-0.637D-02-0.152D-01-0.475D-02 0.164D-01 0.166D+00
 Coeff-Com:  0.836D+00
 Coeff-En:   0.000D+00 0.000D+00 0.000D+00 0.000D+00 0.000D+00 0.000D+00
 Coeff-En:   0.100D+01
 Coeff:      0.809D-02-0.620D-02-0.148D-01-0.462D-02 0.159D-01 0.161D+00
 Coeff:      0.840D+00
 Gap=     0.165 Goal=   None    Shift=    0.000
 RMSDP=5.05D-05 MaxDP=2.20D-03 DE=-4.71D-03 OVMax= 5.21D-03

 Cycle   8  Pass 1  IDiag  1:
 E= -1547.63920514538     Delta-E=       -0.000627962984 Rises=F Damp=F
 DIIS: error= 8.49D-04 at cycle   8 NSaved=   8.
 NSaved= 8 IEnMin= 8 EnMin= -1547.63920514538     IErMin= 8 ErrMin= 8.49D-04
 ErrMax= 8.49D-04  0.00D+00 EMaxC= 1.00D-01 BMatC= 1.42D-04 BMatP= 1.14D-03
 IDIUse=3 WtCom= 9.92D-01 WtEn= 8.49D-03
 Coeff-Com:  0.298D-02-0.784D-03-0.604D-02-0.747D-03-0.380D-01-0.849D-01
 Coeff-Com:  0.461D+00 0.666D+00
 Coeff-En:   0.000D+00 0.000D+00 0.000D+00 0.000D+00 0.000D+00 0.000D+00
 Coeff-En:   0.000D+00 0.100D+01
 Coeff:      0.296D-02-0.778D-03-0.599D-02-0.740D-03-0.377D-01-0.842D-01
 Coeff:      0.457D+00 0.669D+00
 Gap=     0.165 Goal=   None    Shift=    0.000
 RMSDP=2.09D-05 MaxDP=7.12D-04 DE=-6.28D-04 OVMax= 1.91D-03

 Cycle   9  Pass 1  IDiag  1:
 E= -1547.63928249361     Delta-E=       -0.000077348224 Rises=F Damp=F
 DIIS: error= 1.48D-04 at cycle   9 NSaved=   9.
 NSaved= 9 IEnMin= 9 EnMin= -1547.63928249361     IErMin= 9 ErrMin= 1.48D-04
 ErrMax= 1.48D-04  0.00D+00 EMaxC= 1.00D-01 BMatC= 4.19D-06 BMatP= 1.42D-04
 IDIUse=3 WtCom= 9.99D-01 WtEn= 1.48D-03
 Coeff-Com:  0.444D-03 0.622D-04-0.924D-03 0.236D-04-0.105D-01-0.441D-01
 Coeff-Com:  0.770D-01 0.229D+00 0.749D+00
 Coeff-En:   0.000D+00 0.000D+00 0.000D+00 0.000D+00 0.000D+00 0.000D+00
 Coeff-En:   0.000D+00 0.000D+00 0.100D+01
 Coeff:      0.443D-03 0.621D-04-0.922D-03 0.236D-04-0.105D-01-0.440D-01
 Coeff:      0.769D-01 0.229D+00 0.749D+00
 Gap=     0.165 Goal=   None    Shift=    0.000
 RMSDP=4.64D-06 MaxDP=2.19D-04 DE=-7.73D-05 OVMax= 4.48D-04

 Cycle  10  Pass 1  IDiag  1:
 E= -1547.63928469170     Delta-E=       -0.000002198088 Rises=F Damp=F
 DIIS: error= 1.66D-05 at cycle  10 NSaved=  10.
 NSaved=10 IEnMin=10 EnMin= -1547.63928469170     IErMin=10 ErrMin= 1.66D-05
 ErrMax= 1.66D-05  0.00D+00 EMaxC= 1.00D-01 BMatC= 1.06D-07 BMatP= 4.19D-06
 IDIUse=1 WtCom= 1.00D+00 WtEn= 0.00D+00
 Coeff-Com: -0.270D-04 0.250D-04 0.664D-04 0.406D-05 0.559D-03-0.811D-02
 Coeff-Com: -0.107D-02 0.414D-01 0.207D+00 0.760D+00
 Coeff:     -0.270D-04 0.250D-04 0.664D-04 0.406D-05 0.559D-03-0.811D-02
 Coeff:     -0.107D-02 0.414D-01 0.207D+00 0.760D+00
 Gap=     0.165 Goal=   None    Shift=    0.000
 RMSDP=1.31D-06 MaxDP=7.59D-05 DE=-2.20D-06 OVMax= 9.95D-05

 Cycle  11  Pass 1  IDiag  1:
 E= -1547.63928471657     Delta-E=       -0.000000024876 Rises=F Damp=F
 DIIS: error= 1.70D-05 at cycle  11 NSaved=  11.
 NSaved=11 IEnMin=11 EnMin= -1547.63928471657     IErMin=10 ErrMin= 1.66D-05
 ErrMax= 1.70D-05  0.00D+00 EMaxC= 1.00D-01 BMatC= 5.60D-08 BMatP= 1.06D-07
 IDIUse=1 WtCom= 1.00D+00 WtEn= 0.00D+00
 Coeff-Com: -0.216D-04 0.226D-04 0.608D-05-0.291D-06 0.649D-03 0.408D-03
 Coeff-Com:  0.102D-02 0.356D-02 0.114D-01 0.205D+00 0.778D+00
 Coeff:     -0.216D-04 0.226D-04 0.608D-05-0.291D-06 0.649D-03 0.408D-03
 Coeff:      0.102D-02 0.356D-02 0.114D-01 0.205D+00 0.778D+00
 Gap=     0.165 Goal=   None    Shift=    0.000
 RMSDP=3.91D-07 MaxDP=2.30D-05 DE=-2.49D-08 OVMax= 4.06D-05

 Cycle  12  Pass 1  IDiag  1:
 E= -1547.63928474909     Delta-E=       -0.000000032513 Rises=F Damp=F
 DIIS: error= 7.77D-06 at cycle  12 NSaved=  12.
 NSaved=12 IEnMin=12 EnMin= -1547.63928474909     IErMin=12 ErrMin= 7.77D-06
 ErrMax= 7.77D-06  0.00D+00 EMaxC= 1.00D-01 BMatC= 1.01D-08 BMatP= 5.60D-08
 IDIUse=1 WtCom= 1.00D+00 WtEn= 0.00D+00
 Coeff-Com: -0.120D-04 0.965D-05-0.757D-05-0.198D-05 0.323D-03 0.106D-02
 Coeff-Com:  0.937D-03-0.131D-02-0.646D-02 0.266D-01 0.213D+00 0.766D+00
 Coeff:     -0.120D-04 0.965D-05-0.757D-05-0.198D-05 0.323D-03 0.106D-02
 Coeff:      0.937D-03-0.131D-02-0.646D-02 0.266D-01 0.213D+00 0.766D+00
 Gap=     0.165 Goal=   None    Shift=    0.000
 RMSDP=1.59D-07 MaxDP=1.22D-05 DE=-3.25D-08 OVMax= 1.32D-05

 Cycle  13  Pass 1  IDiag  1:
 E= -1547.63928475344     Delta-E=       -0.000000004352 Rises=F Damp=F
 DIIS: error= 4.13D-06 at cycle  13 NSaved=  13.
 NSaved=13 IEnMin=13 EnMin= -1547.63928475344     IErMin=13 ErrMin= 4.13D-06
 ErrMax= 4.13D-06  0.00D+00 EMaxC= 1.00D-01 BMatC= 2.54D-09 BMatP= 1.01D-08
 IDIUse=1 WtCom= 1.00D+00 WtEn= 0.00D+00
 Coeff-Com: -0.102D-06 0.713D-06-0.132D-04-0.453D-06-0.213D-04 0.408D-03
 Coeff-Com:  0.499D-03-0.299D-03-0.203D-02-0.336D-01-0.132D+00 0.151D+00
 Coeff-Com:  0.102D+01
 Coeff:     -0.102D-06 0.713D-06-0.132D-04-0.453D-06-0.213D-04 0.408D-03
 Coeff:      0.499D-03-0.299D-03-0.203D-02-0.336D-01-0.132D+00 0.151D+00
 Coeff:      0.102D+01
 Gap=     0.165 Goal=   None    Shift=    0.000
 RMSDP=1.25D-07 MaxDP=1.05D-05 DE=-4.35D-09 OVMax= 1.09D-05

 Cycle  14  Pass 1  IDiag  1:
 E= -1547.63928475517     Delta-E=       -0.000000001729 Rises=F Damp=F
 DIIS: error= 1.86D-07 at cycle  14 NSaved=  14.
 NSaved=14 IEnMin=14 EnMin= -1547.63928475517     IErMin=14 ErrMin= 1.86D-07
 ErrMax= 1.86D-07  0.00D+00 EMaxC= 1.00D-01 BMatC= 5.56D-12 BMatP= 2.54D-09
 IDIUse=1 WtCom= 1.00D+00 WtEn= 0.00D+00
 Coeff-Com:  0.521D-06 0.625D-07-0.716D-06 0.127D-06-0.275D-04-0.926D-04
 Coeff-Com: -0.921D-04 0.251D-03 0.103D-02 0.770D-03-0.117D-01-0.762D-01
 Coeff-Com:  0.443D-01 0.104D+01
 Coeff:      0.521D-06 0.625D-07-0.716D-06 0.127D-06-0.275D-04-0.926D-04
 Coeff:     -0.921D-04 0.251D-03 0.103D-02 0.770D-03-0.117D-01-0.762D-01
 Coeff:      0.443D-01 0.104D+01
 Gap=     0.165 Goal=   None    Shift=    0.000
 RMSDP=1.40D-08 MaxDP=5.82D-07 DE=-1.73D-09 OVMax= 1.93D-06

 Cycle  15  Pass 1  IDiag  1:
 E= -1547.63928475517     Delta-E=       -0.000000000002 Rises=F Damp=F
 DIIS: error= 3.61D-08 at cycle  15 NSaved=  15.
 NSaved=15 IEnMin=15 EnMin= -1547.63928475517     IErMin=15 ErrMin= 3.61D-08
 ErrMax= 3.61D-08  0.00D+00 EMaxC= 1.00D-01 BMatC= 2.48D-13 BMatP= 5.56D-12
 IDIUse=1 WtCom= 1.00D+00 WtEn= 0.00D+00
 Coeff-Com:  0.191D-07-0.754D-10 0.230D-06 0.465D-07-0.584D-05-0.255D-04
 Coeff-Com: -0.174D-04 0.424D-04 0.260D-03 0.122D-02 0.154D-02-0.128D-01
 Coeff-Com: -0.209D-01 0.168D+00 0.862D+00
 Coeff:      0.191D-07-0.754D-10 0.230D-06 0.465D-07-0.584D-05-0.255D-04
 Coeff:     -0.174D-04 0.424D-04 0.260D-03 0.122D-02 0.154D-02-0.128D-01
 Coeff:     -0.209D-01 0.168D+00 0.862D+00
 Gap=     0.165 Goal=   None    Shift=    0.000
 RMSDP=2.33D-09 MaxDP=9.22D-08 DE=-1.82D-12 OVMax= 2.68D-07

 SCF Done:  E(RPBE1PBE) =  -1547.63928476     A.U. after   15 cycles
            NFock= 15  Conv=0.23D-08     -V/T= 2.2703
 KE= 1.218336815199D+03 PE=-4.559520328944D+03 EE= 1.270839296601D+03
 Leave Link  502 at Tue Jan 11 14:47:43 2022, MaxMem=  1048576000 cpu:            1149.1 elap:             347.0
 (Enter /home/pcmt/gaussian/g16.C.01/g16/l601.exe)
 Copying SCF densities to generalized density rwf, IOpCl= 0 IROHF=0.

 **********************************************************************

            Population analysis using the SCF Density.

 **********************************************************************

 Orbital symmetries:
       Occupied  (B1) (A1) (B2) (A1) (A1) (B1) (A1) (B1) (A1) (B2)
                 (B1) (A1) (A1) (B1) (B2) (A2) (A1) (B1) (A2) (B2)
                 (A1) (A1) (B2) (B1) (A1) (A1) (A1) (B1) (B2) (A2)
                 (B2) (A1) (B1) (A1) (B2) (A1) (B1) (A1) (B1) (A2)
                 (B2)
       Virtual   (A1) (B1) (B2) (A2) (A1) (B1) (A1) (B1) (A1) (B2)
                 (A1) (B2) (B1) (A1) (A2) (B2) (A1) (B2) (A1) (B1)
                 (A2) (B2) (B1) (A1) (A1) (B2) (B1) (A2) (A1) (B1)
                 (A2) (B2) (A1) (B1) (A1) (B2) (B1) (A2) (A1) (B1)
                 (B2) (A1) (A1) (B1) (A1) (B2) (A2) (B2) (A1) (B1)
                 (A1) (B1) (A2) (B2) (A1) (B2) (A1) (B1) (A1) (A1)
                 (B1) (B1) (B2) (A1) (A2) (A1) (B1) (B2) (A1) (B1)
                 (B2) (A2) (B2) (A2) (A1) (A2) (A2) (B2) (A1) (B1)
                 (A1) (B2) (B1) (B2) (A1) (B1) (A1) (B2) (B1) (A2)
                 (A1) (B2) (A2) (B1) (B1) (A2) (A1) (A1) (B2) (B1)
                 (B2) (B1) (A1) (B1) (A2) (A1) (A1) (B2) (B2) (A1)
                 (B1) (A2) (B1) (A1) (A2) (A1) (B1) (B2) (B2) (A2)
                 (A1) (A1) (B1) (B2) (A2) (A1) (B1) (A1) (B2) (A1)
                 (B2) (B2) (B2) (A2) (B1) (A1) (B1) (A1) (A1) (B2)
                 (A2) (B1) (A2) (B2) (B1) (A1) (A1) (B2) (A2) (A1)
                 (B2) (B1) (A1) (A1) (B1) (A1) (B1) (A2) (B2) (B2)
                 (A2) (B2) (B1) (A1) (A2) (A1) (B1) (B2) (A1) (B1)
                 (A1) (B2) (A2) (A1) (B2) (A1) (B2) (A2) (B1) (A1)
                 (B1) (A1) (A2) (B2) (B1) (A1) (A2) (B2) (B1) (A1)
                 (A1) (B1) (A2) (B2) (A1) (A1) (B1) (B2) (A1) (B1)
                 (A1) (A1) (B2) (A1) (B1) (B2) (A1) (A1) (B1) (B2)
                 (A1) (A1)
 The electronic state is 1-A1.
 Alpha  occ. eigenvalues -- -101.68677-101.68677 -19.26993 -19.26992 -12.17489
 Alpha  occ. eigenvalues --   -9.51393  -9.51393  -7.61301  -7.61138  -7.57749
 Alpha  occ. eigenvalues --   -7.24341  -7.24341  -7.24277  -7.24277  -7.24102
 Alpha  occ. eigenvalues --   -7.24102  -3.97641  -3.97599  -3.96156  -3.96016
 Alpha  occ. eigenvalues --   -3.95290  -1.98033  -1.23575  -1.03181  -1.02347
 Alpha  occ. eigenvalues --   -1.00662  -0.80991  -0.79886  -0.76580  -0.44741
 Alpha  occ. eigenvalues --   -0.44507  -0.43939  -0.42308  -0.42215  -0.39556
 Alpha  occ. eigenvalues --   -0.37223  -0.36331  -0.34772  -0.33905  -0.32903
 Alpha  occ. eigenvalues --   -0.32072
 Alpha virt. eigenvalues --   -0.15599  -0.15532  -0.15030  -0.14948  -0.10556
 Alpha virt. eigenvalues --   -0.09374  -0.06992  -0.02592  -0.01399   0.03178
 Alpha virt. eigenvalues --    0.03466   0.04235   0.05349   0.06366   0.08136
 Alpha virt. eigenvalues --    0.08315   0.18927   0.19719   0.22593   0.23626
 Alpha virt. eigenvalues --    0.25969   0.26389   0.27519   0.28255   0.30888
 Alpha virt. eigenvalues --    0.31516   0.33388   0.34803   0.35020   0.37725
 Alpha virt. eigenvalues --    0.39296   0.39680   0.40000   0.40924   0.41340
 Alpha virt. eigenvalues --    0.42496   0.44461   0.46439   0.49897   0.53198
 Alpha virt. eigenvalues --    0.53295   0.53765   0.60093   0.62800   0.63762
 Alpha virt. eigenvalues --    0.64811   0.65285   0.65625   0.68386   0.68964
 Alpha virt. eigenvalues --    0.70806   0.74096   0.75665   0.77027   0.79777
 Alpha virt. eigenvalues --    0.89339   1.00118   1.06339   1.14369   1.25153
 Alpha virt. eigenvalues --    1.29343   1.39071   1.39290   1.41338   1.41896
 Alpha virt. eigenvalues --    1.42915   1.44592   1.48371   1.49536   1.51281
 Alpha virt. eigenvalues --    1.55868   1.57154   1.58603   1.60649   1.71701
 Alpha virt. eigenvalues --    1.76539   1.76883   1.78057   1.78173   1.79389
 Alpha virt. eigenvalues --    1.82508   1.82662   1.88246   1.88949   1.90506
 Alpha virt. eigenvalues --    1.91533   1.93219   1.94035   1.96866   1.99820
 Alpha virt. eigenvalues --    2.08515   2.08842   2.09074   2.09201   2.10220
 Alpha virt. eigenvalues --    2.10235   2.10359   2.12929   2.13709   2.16275
 Alpha virt. eigenvalues --    2.16951   2.19237   2.21420   2.25509   2.25803
 Alpha virt. eigenvalues --    2.26692   2.28612   2.29270   2.32980   2.34873
 Alpha virt. eigenvalues --    2.35470   2.42640   2.44581   2.44915   2.48401
 Alpha virt. eigenvalues --    2.51766   2.52069   2.52422   2.54737   2.56178
 Alpha virt. eigenvalues --    2.63086   2.74564   2.76568   2.95032   2.98932
 Alpha virt. eigenvalues --    3.00200   3.08528   3.08879   3.14852   3.92148
 Alpha virt. eigenvalues --    4.33506   4.62316   4.65316   4.66242   4.73652
 Alpha virt. eigenvalues --    4.79328   4.95353   4.95733   5.04610   5.05717
 Alpha virt. eigenvalues --    5.05791   5.06532   5.07330   5.07517   5.08668
 Alpha virt. eigenvalues --    5.09049   5.14155   5.17148   5.18686   5.34115
 Alpha virt. eigenvalues --    5.34485   5.35750   6.07349   6.10916   6.12768
 Alpha virt. eigenvalues --    6.15077   6.15371   6.15743   6.16917   6.22502
 Alpha virt. eigenvalues --    6.22720   6.26808   6.29122   6.29508   6.32168
 Alpha virt. eigenvalues --    6.36301   6.38531   6.51465   6.61067   6.62004
 Alpha virt. eigenvalues --    6.74856   6.99704   7.02099   7.21370   7.36775
 Alpha virt. eigenvalues --    8.11357   8.11518   8.14194   8.29669   9.36998
 Alpha virt. eigenvalues --   10.76450  10.77185  10.77421  10.79209  11.00503
 Alpha virt. eigenvalues --   11.00720  13.36374  13.37325  13.38193  13.39241
 Alpha virt. eigenvalues --   13.42021  13.44586  13.69764  13.69822  14.17739
 Alpha virt. eigenvalues --   21.46101  21.52148  21.69659  25.12490  25.16794
 Alpha virt. eigenvalues --   32.16680  43.69133  43.92049  47.88985  47.94273
 Alpha virt. eigenvalues --   48.09834  59.16767 122.13383 122.20672 122.41269
 Alpha virt. eigenvalues --  229.17099 673.70035
     Molecular Orbital Coefficients:
                           1         2         3         4         5
                        (B1)--O   (A1)--O   (B2)--O   (A1)--O   (A1)--O
     Eigenvalues --  -101.68677-101.68677 -19.26993 -19.26992 -12.17489
   1 1   U  1S          0.00000  -0.00000   0.00000   0.00000  -0.00347
   2        2S          0.00000  -0.00002   0.00000   0.00002  -0.54366
   3        3S          0.00000   0.00000   0.00000  -0.00000   0.00649
   4        4S          0.00000   0.00005   0.00000  -0.00004   1.29778
   5        5S          0.00000  -0.00015   0.00000  -0.00005  -1.10039
   6        6S          0.00000   0.00023   0.00000   0.00065  -0.40427
   7        7S          0.00000  -0.00012   0.00000  -0.00290  -0.02171
   8        8S          0.00000  -0.00046   0.00000   0.00345   0.00488
   9        9S          0.00000   0.00260   0.00000  -0.00799   0.00026
  10       10S          0.00000  -0.00051   0.00000   0.00146  -0.00003
  11       11PX        -0.00000   0.00000   0.00000   0.00000   0.00000
  12       11PY         0.00000   0.00000  -0.00000   0.00000   0.00000
  13       11PZ         0.00000   0.00000   0.00000   0.00000   0.00002
  14       12PX         0.00002   0.00000   0.00000   0.00000   0.00000
  15       12PY         0.00000   0.00000   0.00002   0.00000   0.00000
  16       12PZ         0.00000  -0.00001   0.00000  -0.00001  -0.00003
  17       13PX        -0.00004   0.00000   0.00000   0.00000   0.00000
  18       13PY         0.00000   0.00000  -0.00004   0.00000   0.00000
  19       13PZ         0.00000   0.00003   0.00000   0.00001  -0.00004
  20       14PX         0.00007   0.00000   0.00000   0.00000   0.00000
  21       14PY         0.00000   0.00000   0.00000   0.00000   0.00000
  22       14PZ         0.00000  -0.00004   0.00000  -0.00003   0.00034
  23       15PX        -0.00009   0.00000   0.00000   0.00000   0.00000
  24       15PY         0.00000   0.00000   0.00034   0.00000   0.00000
  25       15PZ         0.00000   0.00005   0.00000   0.00004  -0.00026
  26       16PX         0.00012   0.00000   0.00000   0.00000   0.00000
  27       16PY         0.00000   0.00000  -0.00302   0.00000   0.00000
  28       16PZ         0.00000  -0.00007   0.00000  -0.00006   0.00008
  29       17PX        -0.00050   0.00000   0.00000   0.00000   0.00000
  30       17PY         0.00000   0.00000   0.00666   0.00000   0.00000
  31       17PZ         0.00000   0.00032   0.00000  -0.00004  -0.00009
  32       18PX         0.00225   0.00000   0.00000   0.00000   0.00000
  33       18PY         0.00000   0.00000  -0.01893   0.00000   0.00000
  34       18PZ         0.00000  -0.00153   0.00000   0.00042  -0.00006
  35       19PX         0.00010   0.00000   0.00000   0.00000   0.00000
  36       19PY         0.00000   0.00000   0.00080   0.00000   0.00000
  37       19PZ         0.00000  -0.00002   0.00000  -0.00009   0.00003
  38       20D 0        0.00000   0.00001   0.00000  -0.00015  -0.00143
  39       20D+1        0.00005   0.00000   0.00000   0.00000   0.00000
  40       20D-1        0.00000   0.00000   0.00003   0.00000   0.00000
  41       20D+2        0.00000  -0.00004   0.00000  -0.00022  -0.00244
  42       20D-2        0.00000   0.00000   0.00000   0.00000   0.00000
  43       21D 0        0.00000  -0.00001   0.00000   0.00039   0.00002
  44       21D+1       -0.00014   0.00000   0.00000   0.00000   0.00000
  45       21D-1        0.00000   0.00000  -0.00008   0.00000   0.00000
  46       21D+2        0.00000   0.00010   0.00000   0.00054  -0.00031
  47       21D-2        0.00000   0.00000   0.00000   0.00000   0.00000
  48       22D 0        0.00000   0.00001   0.00000  -0.00032  -0.00008
  49       22D+1        0.00023   0.00000   0.00000   0.00000   0.00000
  50       22D-1        0.00000   0.00000   0.00009   0.00000   0.00000
  51       22D+2        0.00000  -0.00018   0.00000  -0.00037  -0.00008
  52       22D-2        0.00000   0.00000   0.00000   0.00000   0.00000
  53       23D 0        0.00000   0.00002   0.00000  -0.00101  -0.00027
  54       23D+1       -0.00040   0.00000   0.00000   0.00000   0.00000
  55       23D-1        0.00000   0.00000  -0.00005   0.00000   0.00000
  56       23D+2        0.00000   0.00037   0.00000  -0.00194  -0.00037
  57       23D-2        0.00000   0.00000   0.00000   0.00000   0.00000
  58       24D 0        0.00000  -0.00013   0.00000   0.00202  -0.00009
  59       24D+1       -0.00106   0.00000   0.00000   0.00000   0.00000
  60       24D-1        0.00000   0.00000   0.00029   0.00000   0.00000
  61       24D+2        0.00000   0.00076   0.00000   0.00307  -0.00014
  62       24D-2        0.00000   0.00000   0.00000   0.00000   0.00000
  63       25F 0        0.00000  -0.00000   0.00000  -0.00000  -0.00012
  64       25F+1       -0.00000   0.00000   0.00000   0.00000   0.00000
  65       25F-1        0.00000   0.00000  -0.00006   0.00000   0.00000
  66       25F+2        0.00000  -0.00001   0.00000   0.00001   0.00021
  67       25F-2        0.00000   0.00000   0.00000   0.00000   0.00000
  68       25F+3        0.00001   0.00000   0.00000   0.00000   0.00000
  69       25F-3        0.00000   0.00000  -0.00006   0.00000   0.00000
  70       26F 0        0.00000   0.00000   0.00000   0.00002  -0.00001
  71       26F+1        0.00000   0.00000   0.00000   0.00000   0.00000
  72       26F-1        0.00000   0.00000   0.00036   0.00000   0.00000
  73       26F+2        0.00000   0.00003   0.00000  -0.00003  -0.00002
  74       26F-2        0.00000   0.00000   0.00000   0.00000   0.00000
  75       26F+3       -0.00004   0.00000   0.00000   0.00000   0.00000
  76       26F-3        0.00000   0.00000   0.00043   0.00000   0.00000
  77       27F 0        0.00000   0.00001   0.00000  -0.00006   0.00003
  78       27F+1        0.00000   0.00000   0.00000   0.00000   0.00000
  79       27F-1        0.00000   0.00000  -0.00219   0.00000   0.00000
  80       27F+2        0.00000  -0.00007   0.00000  -0.00003  -0.00005
  81       27F-2        0.00000   0.00000   0.00000   0.00000   0.00000
  82       27F+3        0.00009   0.00000   0.00000   0.00000   0.00000
  83       27F-3        0.00000   0.00000  -0.00274   0.00000   0.00000
  84       28F 0        0.00000   0.00038   0.00000  -0.00016  -0.00000
  85       28F+1        0.00019   0.00000   0.00000   0.00000   0.00000
  86       28F-1        0.00000   0.00000   0.00255   0.00000   0.00000
  87       28F+2        0.00000  -0.00035   0.00000   0.00029  -0.00003
  88       28F-2        0.00000   0.00000   0.00000   0.00000   0.00000
  89       28F+3       -0.00001   0.00000   0.00000   0.00000   0.00000
  90       28F-3        0.00000   0.00000   0.00308   0.00000   0.00000
  91       29G 0        0.00000  -0.00001   0.00000   0.00005   0.00008
  92       29G+1        0.00001   0.00000   0.00000   0.00000   0.00000
  93       29G-1        0.00000   0.00000  -0.00001   0.00000   0.00000
  94       29G+2        0.00000   0.00001   0.00000   0.00006   0.00014
  95       29G-2        0.00000   0.00000   0.00000   0.00000   0.00000
  96       29G+3       -0.00001   0.00000   0.00000   0.00000   0.00000
  97       29G-3        0.00000   0.00000  -0.00000   0.00000   0.00000
  98       29G+4        0.00000   0.00000   0.00000   0.00008   0.00019
  99       29G-4        0.00000   0.00000   0.00000   0.00000   0.00000
 100       30G 0        0.00000   0.00003   0.00000  -0.00014   0.00001
 101       30G+1       -0.00002   0.00000   0.00000   0.00000   0.00000
 102       30G-1        0.00000   0.00000   0.00003   0.00000   0.00000
 103       30G+2        0.00000  -0.00001   0.00000  -0.00019   0.00001
 104       30G-2        0.00000   0.00000   0.00000   0.00000   0.00000
 105       30G+3        0.00003   0.00000   0.00000   0.00000   0.00000
 106       30G-3        0.00000   0.00000   0.00002   0.00000   0.00000
 107       30G+4        0.00000  -0.00000   0.00000  -0.00026   0.00002
 108       30G-4        0.00000   0.00000   0.00000   0.00000   0.00000
 109       31G 0        0.00000  -0.00004   0.00000   0.00030   0.00001
 110       31G+1        0.00002   0.00000   0.00000   0.00000   0.00000
 111       31G-1        0.00000   0.00000  -0.00005   0.00000   0.00000
 112       31G+2        0.00000   0.00002   0.00000   0.00041   0.00004
 113       31G-2        0.00000   0.00000   0.00000   0.00000   0.00000
 114       31G+3       -0.00005   0.00000   0.00000   0.00000   0.00000
 115       31G-3        0.00000   0.00000  -0.00003   0.00000   0.00000
 116       31G+4        0.00000   0.00000   0.00000   0.00056   0.00004
 117       31G-4        0.00000   0.00000   0.00000   0.00000   0.00000
 118 2   O  1S          0.00000  -0.00000   0.30786   0.30785   0.00000
 119        2S          0.00000   0.00000   0.45232   0.45239   0.00001
 120        3S          0.00000  -0.00002   0.02453   0.02362   0.00001
 121        4S          0.00000   0.00012  -0.01865  -0.01583   0.00005
 122        5S          0.00000  -0.00011   0.01924   0.01033  -0.00074
 123        6PX         0.00000   0.00000   0.00000   0.00000   0.00000
 124        6PY         0.00000   0.00000  -0.00100  -0.00086  -0.00002
 125        6PZ         0.00000  -0.00000   0.00000   0.00001  -0.00000
 126        7PX         0.00001   0.00000   0.00000   0.00000   0.00000
 127        7PY         0.00000  -0.00005   0.00286   0.00161   0.00021
 128        7PZ         0.00000  -0.00000   0.00008   0.00002   0.00001
 129        8PX        -0.00025   0.00000   0.00000   0.00000   0.00000
 130        8PY         0.00000   0.00004  -0.00413  -0.00096   0.00031
 131        8PZ         0.00000   0.00015  -0.00029  -0.00002  -0.00001
 132        9D 0        0.00000  -0.00000  -0.00009  -0.00009  -0.00001
 133        9D+1       -0.00002   0.00000   0.00000   0.00000   0.00000
 134        9D-1        0.00000   0.00001   0.00000   0.00000  -0.00000
 135        9D+2        0.00000   0.00001  -0.00016  -0.00017  -0.00001
 136        9D-2       -0.00001   0.00000   0.00000   0.00000   0.00000
 137       10D 0        0.00000   0.00000   0.00053   0.00031   0.00006
 138       10D+1        0.00005   0.00000   0.00000   0.00000   0.00000
 139       10D-1        0.00000  -0.00002  -0.00003  -0.00001  -0.00000
 140       10D+2        0.00000  -0.00004   0.00095   0.00056   0.00010
 141       10D-2        0.00003   0.00000   0.00000   0.00000   0.00000
 142       11F 0        0.00000   0.00000  -0.00001   0.00000   0.00000
 143       11F+1       -0.00000   0.00000   0.00000   0.00000   0.00000
 144       11F-1        0.00000  -0.00000  -0.00012  -0.00008   0.00000
 145       11F+2        0.00000   0.00001  -0.00001  -0.00000   0.00000
 146       11F-2       -0.00001   0.00000   0.00000   0.00000   0.00000
 147       11F+3       -0.00001   0.00000   0.00000   0.00000   0.00000
 148       11F-3        0.00000   0.00000  -0.00016  -0.00011   0.00001
 149 3   O  1S          0.00000  -0.00000  -0.30786   0.30785   0.00000
 150        2S          0.00000   0.00000  -0.45232   0.45239   0.00001
 151        3S          0.00000  -0.00002  -0.02453   0.02362   0.00001
 152        4S          0.00000   0.00012   0.01865  -0.01583   0.00005
 153        5S          0.00000  -0.00011  -0.01924   0.01033  -0.00074
 154        6PX         0.00000   0.00000   0.00000   0.00000   0.00000
 155        6PY         0.00000  -0.00000  -0.00100   0.00086   0.00002
 156        6PZ         0.00000  -0.00000  -0.00000   0.00001  -0.00000
 157        7PX         0.00001   0.00000   0.00000   0.00000   0.00000
 158        7PY         0.00000   0.00005   0.00286  -0.00161  -0.00021
 159        7PZ         0.00000  -0.00000  -0.00008   0.00002   0.00001
 160        8PX        -0.00025   0.00000   0.00000   0.00000   0.00000
 161        8PY         0.00000  -0.00004  -0.00413   0.00096  -0.00031
 162        8PZ         0.00000   0.00015   0.00029  -0.00002  -0.00001
 163        9D 0        0.00000  -0.00000   0.00009  -0.00009  -0.00001
 164        9D+1       -0.00002   0.00000   0.00000   0.00000   0.00000
 165        9D-1        0.00000  -0.00001   0.00000  -0.00000   0.00000
 166        9D+2        0.00000   0.00001   0.00016  -0.00017  -0.00001
 167        9D-2        0.00001   0.00000   0.00000   0.00000   0.00000
 168       10D 0        0.00000   0.00000  -0.00053   0.00031   0.00006
 169       10D+1        0.00005   0.00000   0.00000   0.00000   0.00000
 170       10D-1        0.00000   0.00002  -0.00003   0.00001   0.00000
 171       10D+2        0.00000  -0.00004  -0.00095   0.00056   0.00010
 172       10D-2       -0.00003   0.00000   0.00000   0.00000   0.00000
 173       11F 0        0.00000   0.00000   0.00001   0.00000   0.00000
 174       11F+1       -0.00000   0.00000   0.00000   0.00000   0.00000
 175       11F-1        0.00000   0.00000  -0.00012   0.00008  -0.00000
 176       11F+2        0.00000   0.00001   0.00001  -0.00000   0.00000
 177       11F-2        0.00001   0.00000   0.00000   0.00000   0.00000
 178       11F+3       -0.00001   0.00000   0.00000   0.00000   0.00000
 179       11F-3        0.00000  -0.00000  -0.00016   0.00011  -0.00001
 180 4   Cl 1S          0.70727   0.70727   0.00000  -0.00000   0.00000
 181        2S         -0.02282  -0.02282   0.00000   0.00000  -0.00000
 182        3S         -0.00738  -0.00737   0.00000   0.00001  -0.00002
 183        4S          0.00294   0.00292   0.00000  -0.00018   0.00008
 184        5S         -0.00279  -0.00278   0.00000   0.00058  -0.00013
 185        6PX        -0.00003  -0.00003   0.00000   0.00000  -0.00000
 186        6PY         0.00000   0.00000   0.00000   0.00000   0.00000
 187        6PZ         0.00002   0.00002   0.00000  -0.00000   0.00000
 188        7PX         0.00006   0.00005   0.00000  -0.00003   0.00002
 189        7PY         0.00000   0.00000  -0.00001   0.00000   0.00000
 190        7PZ        -0.00003  -0.00003   0.00000   0.00001  -0.00001
 191        8PX        -0.00012  -0.00009   0.00000   0.00010  -0.00005
 192        8PY         0.00000   0.00000   0.00003   0.00000   0.00000
 193        8PZ         0.00006   0.00006   0.00000  -0.00006   0.00003
 194        9PX         0.00013   0.00009   0.00000  -0.00024   0.00005
 195        9PY         0.00000   0.00000  -0.00009   0.00000   0.00000
 196        9PZ        -0.00006  -0.00006   0.00000   0.00013  -0.00003
 197       10PX         0.00071   0.00070   0.00000  -0.00015   0.00007
 198       10PY         0.00000   0.00000   0.00041   0.00000   0.00000
 199       10PZ        -0.00041  -0.00055   0.00000   0.00019  -0.00005
 200       11D 0       -0.00002   0.00000   0.00000  -0.00000  -0.00000
 201       11D+1       -0.00007  -0.00007   0.00000  -0.00001  -0.00002
 202       11D-1        0.00000   0.00000  -0.00001   0.00000   0.00000
[...]
 212       13F-1        0.00003
 213       13F+2        0.00039
 214       13F-2        0.00025
 215       13F+3        0.00023
 216       13F-3        0.00022
 217 5   Cl 1S          2.01312
 218        2S          0.43414
 219        3S          1.52200
 220        4S          1.11946
 221        5S          0.87920
 222        6PX         1.39482
 223        6PY         1.39907
 224        6PZ         1.39542
 225        7PX         0.55810
 226        7PY         0.55573
 227        7PZ         0.55783
 228        8PX         0.35746
 229        8PY         0.38308
 230        8PZ         0.36207
 231        9PX         0.94430
 232        9PY         0.99118
 233        9PZ         0.94692
 234       10PX         0.49678
 235       10PY         0.54816
 236       10PZ         0.51228
 237       11D 0        0.00057
 238       11D+1        0.00140
 239       11D-1        0.00035
 240       11D+2        0.00089
 241       11D-2        0.00063
 242       12D 0        0.00467
 243       12D+1        0.00669
 244       12D-1        0.00225
 245       12D+2        0.00456
 246       12D-2        0.00389
 247       13F 0        0.00015
 248       13F+1        0.00037
 249       13F-1        0.00003
 250       13F+2        0.00039
 251       13F-2        0.00025
 252       13F+3        0.00023
 253       13F-3        0.00022
          Condensed to atoms (all electrons):
               1          2          3          4          5
     1  U   29.337200   0.357025   0.357025   0.187824   0.187824
     2  O    0.357025   8.006112   0.001450   0.011655   0.011655
     3  O    0.357025   0.001450   8.006112   0.011655   0.011655
     4  Cl   0.187824   0.011655   0.011655  17.184630   0.002888
     5  Cl   0.187824   0.011655   0.011655   0.002888  17.184630
 Mulliken charges:
               1
     1  U    1.573102
     2  O   -0.387897
     3  O   -0.387897
     4  Cl  -0.398654
     5  Cl  -0.398654
 Sum of Mulliken charges =  -0.00000
 Mulliken charges with hydrogens summed into heavy atoms:
               1
     1  U    1.573102
     2  O   -0.387897
     3  O   -0.387897
     4  Cl  -0.398654
     5  Cl  -0.398654
 Electronic spatial extent (au):  <R**2>=           1024.3376
 Charge=              0.0000 electrons
 Dipole moment (field-independent basis, Debye):
    X=              0.0000    Y=             -0.0000    Z=              4.8556  Tot=              4.8556
 Quadrupole moment (field-independent basis, Debye-Ang):
   XX=            -78.7239   YY=            -78.6376   ZZ=            -68.3070
   XY=              0.0000   XZ=              0.0000   YZ=             -0.0000
 Traceless Quadrupole moment (field-independent basis, Debye-Ang):
   XX=             -3.5011   YY=             -3.4148   ZZ=              6.9159
   XY=              0.0000   XZ=              0.0000   YZ=             -0.0000
 Octapole moment (field-independent basis, Debye-Ang**2):
  XXX=              0.0000  YYY=             -0.0000  ZZZ=             49.9812  XYY=              0.0000
  XXY=             -0.0000  XXZ=             24.8933  XZZ=              0.0000  YZZ=             -0.0000
  YYZ=              9.0404  XYZ=             -0.0000
 Hexadecapole moment (field-independent basis, Debye-Ang**3):
 XXXX=           -751.8452 YYYY=           -297.0174 ZZZZ=           -306.4621 XXXY=              0.0000
 XXXZ=             -0.0000 YYYX=              0.0000 YYYZ=              0.0000 ZZZX=             -0.0000
 ZZZY=              0.0000 XXYY=           -168.4214 XXZZ=           -175.6142 YYZZ=           -101.6588
 XXYZ=              0.0000 YYXZ=              0.0000 ZZXY=              0.0000
 N-N= 5.250185521211D+02 E-N=-4.564379667968D+03  KE= 1.218622408519D+03
 Symmetry A1   KE= 5.502361168968D+02
 Symmetry A2   KE= 6.471151953521D+01
 Symmetry B1   KE= 4.507787981399D+02
 Symmetry B2   KE= 1.528959739471D+02
 Orbital energies and kinetic energies (alpha):
                                 1                 2
   1         (A1)--O        -101.684609        137.099320
   2         (B1)--O        -101.684609        137.099266
   3         (B2)--O         -19.276797         29.110785
   4         (A1)--O         -19.276791         29.111388
   5         (A1)--O         -12.167020          4.797323
   6         (A1)--O          -9.511751         21.560990
   7         (B1)--O          -9.511750         21.561189
   8         (A1)--O          -7.604547          5.115962
   9         (B1)--O          -7.603972          5.115915
  10         (B2)--O          -7.570551          5.108833
  11         (B1)--O          -7.241142         20.566038
  12         (A1)--O          -7.241141         20.565997
  13         (A1)--O          -7.240501         20.568589
  14         (B1)--O          -7.240501         20.568581
  15         (B2)--O          -7.239030         20.573102
  16         (A2)--O          -7.239029         20.573026
  17         (A1)--O          -3.968374          7.298262
  18         (B1)--O          -3.967956          7.300373
  19         (B2)--O          -3.954214          7.285205
  20         (A2)--O          -3.954033          7.285802
  21         (A1)--O          -3.947162          7.272207
  22         (A1)--O          -1.980314          2.810888
  23         (B2)--O          -1.263356          2.412403
  24         (A1)--O          -1.049491          2.738159
  25         (B1)--O          -1.026725          2.310946
  26         (A1)--O          -0.990477          2.877683
  27         (A1)--O          -0.806992          3.177760
  28         (B1)--O          -0.798277          3.235122
  29         (B2)--O          -0.759524          3.289506
  30         (B2)--O          -0.463898          2.112266
  31         (A2)--O          -0.462882          2.049548
  32         (A1)--O          -0.450361          2.604843
  33         (B1)--O          -0.438082          2.803782
  34         (A1)--O          -0.435309          2.879474
  35         (B2)--O          -0.401143          3.808325
  36         (A1)--O          -0.369302          2.422888
  37         (B1)--O          -0.359256          2.425122
  38         (A1)--O          -0.346193          2.216327
  39         (B1)--O          -0.335691          2.403066
  40         (A2)--O          -0.333467          2.447385
  41         (B2)--O          -0.317741          2.747562
  42         (A1)--V          -0.149183          5.536580
  43         (B1)--V          -0.148372          5.727839
  44         (B2)--V          -0.144413          5.798564
  45         (A2)--V          -0.142591          5.775414
  46         (A1)--V          -0.103684          3.235502
  47         (B1)--V          -0.091222          4.804495
  48         (A1)--V          -0.049808          3.353186
  49         (A1)--V          -0.018054          1.511056
  50         (B1)--V          -0.012455          2.359136
  51         (A1)--V           0.033814          0.501835
  52         (B2)--V           0.036588          1.608059
  53         (B2)--V           0.045940          3.185190
  54         (B1)--V           0.053008          0.737850
  55         (A1)--V           0.062898          0.948749
  56         (A2)--V           0.093671          2.191095
  57         (B2)--V           0.111939          2.555464
  58         (B2)--V           0.184230          1.064769
  59         (A1)--V           0.187408          0.778563
  60         (A1)--V           0.230086          1.248017
  61         (B1)--V           0.234485          1.255370
  62         (A2)--V           0.257681          1.109871
  63         (B1)--V           0.271912          1.390676
  64         (B2)--V           0.287005          1.934495
  65         (A1)--V           0.288475          1.479019
  66         (A1)--V           0.312451          1.500393
  67         (B2)--V           0.316890          1.425408
  68         (B1)--V           0.333760          1.605105
  69         (A1)--V           0.346097          1.495633
  70         (A2)--V           0.350319          1.669172
  71         (B1)--V           0.370352          1.646872
  72         (A2)--V           0.395951          1.750951
  73         (A1)--V           0.396890          1.540440
  74         (B2)--V           0.396938          1.616070
  75         (B1)--V           0.408429          1.666835
  76         (A1)--V           0.411245          1.610244
  77         (B2)--V           0.434765          1.690346
  78         (B1)--V           0.461444          1.980481
  79         (A2)--V           0.463670          1.610184
  80         (A1)--V           0.505186          1.597538
  81         (B1)--V           0.520320          1.602898
  82         (A1)--V           0.531947          1.571468
  83         (B2)--V           0.532268          1.710164
  84         (A1)--V           0.605723          1.547204
  85         (B1)--V           0.624688          2.009618
  86         (B2)--V           0.625784          1.900137
  87         (A1)--V           0.642248          3.044931
  88         (A2)--V           0.643562          1.788489
  89         (A1)--V           0.664116          1.933479
  90         (B2)--V           0.671935          1.569835
  91         (B1)--V           0.716893          1.810541
  92         (A1)--V           0.728130          1.991073
  93         (B1)--V           0.742213          1.943375
  94         (A2)--V           0.749501          1.670730
  95         (B2)--V           0.759663          1.562992
  96         (A1)--V           0.799569          2.126137
  97         (B2)--V           0.892140          1.990798
  98         (A1)--V           1.038440          4.120003
  99         (B1)--V           1.049900          4.185079
 100         (A1)--V           1.155073          3.869365
 101         (A1)--V           1.259836          3.700099
 102         (B1)--V           1.280099          3.686931
 103         (B1)--V           1.384325          3.871919
 104         (B2)--V           1.393272          4.073174
 105         (A2)--V           1.393932          4.119232
 106         (A1)--V           1.394773          3.308516
 107         (A1)--V           1.444935          4.060455
 108         (B2)--V           1.446503          3.953829
 109         (B1)--V           1.472593          4.171022
 110         (A1)--V           1.489683          3.864995
 111         (B1)--V           1.498566          3.436188
 112         (B2)--V           1.529801          3.052351
 113         (A2)--V           1.570898          3.168146
 114         (B2)--V           1.621833          3.278551
 115         (A2)--V           1.633950          3.240547
 116         (A1)--V           1.703145          4.015039
 117         (A1)--V           1.766036          4.816507
 118         (A2)--V           1.771658          4.891416
 119         (A2)--V           1.774746          4.789659
 120         (B2)--V           1.800138          4.775470
 121         (B1)--V           1.804884          4.779699
 122         (A1)--V           1.827530          4.728238
 123         (B2)--V           1.827710          4.696743
 124         (B1)--V           1.874897          4.829352
 125         (B1)--V           1.908580          4.426576
 126         (A1)--V           1.910611          4.434837
 127         (B2)--V           1.916943          4.429730
 128         (A1)--V           1.945119          4.353189
 129         (B1)--V           1.976819          5.257290
 130         (A2)--V           1.993372          4.149902
 131         (B2)--V           1.998220          4.394649
 132         (B1)--V           2.071392          3.759596
 133         (A1)--V           2.080768          4.014474
 134         (A2)--V           2.091828          3.202265
 135         (B2)--V           2.094185          3.805496
 136         (A1)--V           2.097619          3.336948
 137         (B1)--V           2.102284          3.234960
 138         (A2)--V           2.104197          3.200528
 139         (B2)--V           2.136195          3.379342
 140         (A1)--V           2.136653          3.518657
 141         (B1)--V           2.160430          4.207331
 142         (B2)--V           2.184196          4.261158
 143         (B1)--V           2.190883          3.872899
 144         (A1)--V           2.226745          5.493514
 145         (A2)--V           2.260499          6.717463
 146         (B1)--V           2.261596          6.767352
 147         (A1)--V           2.275614          5.974647
 148         (A1)--V           2.279627          5.361214
 149         (B2)--V           2.295749          5.194135
 150         (B2)--V           2.324395          6.449507
 151         (A1)--V           2.348024          5.071037
 152         (B1)--V           2.358088          5.311125
 153         (A2)--V           2.405030          5.081114
 154         (A1)--V           2.453097          5.905211
 155         (B1)--V           2.462779          6.050223
 156         (A2)--V           2.484702          6.072324
 157         (A1)--V           2.514634          6.202040
 158         (B2)--V           2.526351          6.167371
 159         (B1)--V           2.529222          6.225291
 160         (B2)--V           2.562184          6.636902
 161         (A2)--V           2.570081          6.342819
 162         (A1)--V           2.658937          7.176773
 163         (B1)--V           2.818948          6.891499
 164         (A1)--V           2.828289          6.978977
 165         (B2)--V           2.953930          7.152233
 166         (A2)--V           2.998680          7.095736
 167         (A1)--V           3.004341          7.197573
 168         (A1)--V           3.053354          7.626434
 169         (B1)--V           3.096721          7.114884
 170         (B2)--V           3.102192          7.782824
 171         (A1)--V           4.001919          9.055539
 172         (B2)--V           4.343256          9.026893
 173         (B2)--V           4.540443          9.472267
 174         (B2)--V           4.641156         11.969954
 175         (A2)--V           4.665585         11.793876
 176         (B1)--V           4.743317         12.548662
 177         (A1)--V           4.771132         12.170978
 178         (A1)--V           4.930718         11.792104
 179         (B1)--V           4.986985         12.296608
 180         (A1)--V           5.042597          7.334844
 181         (B1)--V           5.044294          7.254830
 182         (A2)--V           5.057096          6.450076
 183         (B2)--V           5.058118          6.447877
 184         (B1)--V           5.072740          6.518379
 185         (A2)--V           5.073154          8.414692
 186         (A1)--V           5.081889          6.804736
 187         (B2)--V           5.130936          7.908938
 188         (B2)--V           5.158985          7.213812
 189         (A2)--V           5.173094          7.403256
 190         (A1)--V           5.174845         10.005386
 191         (A1)--V           5.297311          7.338532
 192         (B1)--V           5.313606          7.170341
 193         (B2)--V           5.378148         11.311529
 194         (A1)--V           6.111008         11.513970
 195         (B1)--V           6.127639         11.835146
 196         (A1)--V           6.136192         14.423075
 197         (B1)--V           6.163908         15.409094
 198         (A2)--V           6.164818         16.031536
 199         (B2)--V           6.174165         15.781051
 200         (A1)--V           6.203845         13.567448
 201         (B2)--V           6.266370          9.998501
 202         (A2)--V           6.276040         11.554153
 203         (B1)--V           6.286117         13.573458
 204         (A1)--V           6.314103         13.732839
 205         (A2)--V           6.316068          9.736679
 206         (B2)--V           6.369003         10.955993
 207         (A1)--V           6.377786         12.972792
 208         (B1)--V           6.396095         13.510537
 209         (B2)--V           6.533973         11.295008
 210         (A1)--V           6.646657         10.934912
 211         (B1)--V           6.675688         10.390718
 212         (A1)--V           6.842660         11.209255
 213         (B2)--V           7.046623         14.542641
 214         (A2)--V           7.061979         14.004902
 215         (A1)--V           7.163996         15.926731
 216         (B2)--V           7.491969         12.702964
 217         (A1)--V           8.103355         16.219517
 218         (A2)--V           8.166861         16.135117
 219         (B2)--V           8.279563         15.990533
 220         (B1)--V           8.324941         16.426596
 221         (A1)--V           9.542757         17.135366
 222         (B1)--V          10.768623         33.605573
 223         (A1)--V          10.769649         33.600996
 224         (A2)--V          10.771515         33.585837
 225         (B2)--V          10.793658         33.608152
 226         (A1)--V          10.991985         33.592924
 227         (B1)--V          11.018325         33.599123
 228         (A2)--V          13.373477         34.652765
 229         (B2)--V          13.381382         34.651186
 230         (B1)--V          13.389974         34.637925
 231         (A1)--V          13.408535         34.634427
 232         (A1)--V          13.456755         34.631579
 233         (B1)--V          13.472282         34.632803
 234         (A2)--V          13.743679         34.574826
 235         (B2)--V          13.837010         34.608973
 236         (A1)--V          14.177603         34.585361
 237         (A1)--V          21.479326         43.570673
 238         (B1)--V          21.522275         43.645535
 239         (B2)--V          21.722934         43.954291
 240         (B1)--V          25.119695         44.413776
 241         (A1)--V          25.131723         44.428402
 242         (A1)--V          32.174831        437.412756
 243         (A1)--V          43.731907        108.741089
 244         (B2)--V          43.903612        108.919968
 245         (A1)--V          47.906888         92.990098
 246         (B1)--V          47.943966         93.013926
 247         (B2)--V          48.120845         93.116497
 248         (A1)--V          59.211287         43.870496
 249         (A1)--V         122.154250        236.557514
 250         (B1)--V         122.204719        236.611794
 251         (B2)--V         122.437113        236.841257
 252         (A1)--V         229.199549        139.230642
 253         (A1)--V         673.725739       1054.467883
 Total kinetic energy from orbitals= 1.218622408519D+03
 No NMR shielding tensors so no spin-rotation constants.
 Leave Link  601 at Tue Jan 11 15:23:56 2022, MaxMem=  1048576000 cpu:               1.9 elap:               0.6
 (Enter /home/pcmt/gaussian/g16.C.01/g16/l9999.exe)

 Test job not archived.
 1\1\GINC-U-0-4\FOpt\RPBE1PBE\Gen\Cl2O2U1\VALLET\11-Jan-2022\0\\#p PBE1
 PBE/GEN GFInput GFPrint 5D 7F IOP(6/7=3, 4/69=2, 6/10=1) Pseudo=Read E
 mpiricalDispersion=GD3BJ Symm=(Loose) Int=(UltraFine) Guess=(Harris) S
 cf=(NoVarAcc,MaxCycle=100,conver=8) Opt=Tight\\[UO2Cl4]2- - PBE0+D3BJ 
 - GS\\0,1\U,0.,0.2485734008,0.\O,-1.7216134772,0.450053995,0.\O,1.7216
 134772,0.450053995,0.\Cl,0.,-1.2218361514,-2.030575914\Cl,0.,-1.221836
 1514,2.030575914\\Version=ES64L-G16RevC.01\State=1-A1\HF=-1547.6456514
 \RMSD=4.876e-09\RMSF=2.220e-07\Dipole=0.,1.9103332,0.\Quadrupole=-2.53
 87984,5.1417653,-2.6029669,0.,0.,0.\PG=C02V [C2(U1),SGV(O2),SGV'(Cl2)]
 \\@


 Age does not diminish the extreme disappointment of
 having a scoop of ice cream fall from the cone.
 -- Jim Fiebig
 Job cpu time:       0 days  2 hours 25 minutes 33.5 seconds.
 Elapsed time:       0 days  0 hours 43 minutes 25.1 seconds.
 File lengths (MBytes):  RWF=     35 Int=      0 D2E=      0 Chk=      6 Scr=      1
 Normal termination of Gaussian 16 at Tue Jan 11 15:23:56 2022.
