 Entering Gaussian System, Link 0=/home/pcmt/gaussian/g16.C.01/g16/g16
 AtFile(1): /home/vallet/basis/U-ECP60MWB_SEG
 AtFile(1): /home/vallet/basis/U-ECP60MWB
 Initial command:
 /home/pcmt/gaussian/g16.C.01/g16/l1.exe "/state/partition2/vallet/866076.phlam-s-sakura/Gau-62727.inp" -scrdir="/state/partition2/vallet/866076.phlam-s-sakura/"
 Entering Link 1 = /home/pcmt/gaussian/g16.C.01/g16/l1.exe PID=     62728.
  
 Copyright (c) 1988-2019, Gaussian, Inc.  All Rights Reserved.
  
 This is part of the Gaussian(R) 16 program.  It is based on
 the Gaussian(R) 09 system (copyright 2009, Gaussian, Inc.),
 the Gaussian(R) 03 system (copyright 2003, Gaussian, Inc.),
 the Gaussian(R) 98 system (copyright 1998, Gaussian, Inc.),
 the Gaussian(R) 94 system (copyright 1995, Gaussian, Inc.),
 the Gaussian 92(TM) system (copyright 1992, Gaussian, Inc.),
 the Gaussian 90(TM) system (copyright 1990, Gaussian, Inc.),
 the Gaussian 88(TM) system (copyright 1988, Gaussian, Inc.),
 the Gaussian 86(TM) system (copyright 1986, Carnegie Mellon
 University), and the Gaussian 82(TM) system (copyright 1983,
 Carnegie Mellon University). Gaussian is a federally registered
 trademark of Gaussian, Inc.
  
 This software contains proprietary and confidential information,
 including trade secrets, belonging to Gaussian, Inc.
  
 This software is provided under written license and may be
 used, copied, transmitted, or stored only in accord with that
 written license.
  
 The following legend is applicable only to US Government
 contracts under FAR:
  
                    RESTRICTED RIGHTS LEGEND
  
 Use, reproduction and disclosure by the US Government is
 subject to restrictions as set forth in subparagraphs (a)
 and (c) of the Commercial Computer Software - Restricted
 Rights clause in FAR 52.227-19.
  
 Gaussian, Inc.
 340 Quinnipiac St., Bldg. 40, Wallingford CT 06492
  
  
 ---------------------------------------------------------------
 Warning -- This program may not be used in any manner that
 competes with the business of Gaussian, Inc. or will provide
 assistance to any competitor of Gaussian, Inc.  The licensee
 of this program is prohibited from giving any competitor of
 Gaussian, Inc. access to this program.  By using this program,
 the user acknowledges that Gaussian, Inc. is engaged in the
 business of creating and licensing software in the field of
 computational chemistry and represents and warrants to the
 licensee that it is not a competitor of Gaussian, Inc. and that
 it will not use this program in any manner prohibited above.
 ---------------------------------------------------------------
  

 Cite this work as:
 Gaussian 16, Revision C.01,
 M. J. Frisch, G. W. Trucks, H. B. Schlegel, G. E. Scuseria, 
 M. A. Robb, J. R. Cheeseman, G. Scalmani, V. Barone, 
 G. A. Petersson, H. Nakatsuji, X. Li, M. Caricato, A. V. Marenich, 
 J. Bloino, B. G. Janesko, R. Gomperts, B. Mennucci, H. P. Hratchian, 
 J. V. Ortiz, A. F. Izmaylov, J. L. Sonnenberg, D. Williams-Young, 
 F. Ding, F. Lipparini, F. Egidi, J. Goings, B. Peng, A. Petrone, 
 T. Henderson, D. Ranasinghe, V. G. Zakrzewski, J. Gao, N. Rega, 
 G. Zheng, W. Liang, M. Hada, M. Ehara, K. Toyota, R. Fukuda, 
 J. Hasegawa, M. Ishida, T. Nakajima, Y. Honda, O. Kitao, H. Nakai, 
 T. Vreven, K. Throssell, J. A. Montgomery, Jr., J. E. Peralta, 
 F. Ogliaro, M. J. Bearpark, J. J. Heyd, E. N. Brothers, K. N. Kudin, 
 V. N. Staroverov, T. A. Keith, R. Kobayashi, J. Normand, 
 K. Raghavachari, A. P. Rendell, J. C. Burant, S. S. Iyengar, 
 J. Tomasi, M. Cossi, J. M. Millam, M. Klene, C. Adamo, R. Cammi, 
 J. W. Ochterski, R. L. Martin, K. Morokuma, O. Farkas, 
 J. B. Foresman, and D. J. Fox, Gaussian, Inc., Wallingford CT, 2019.
 
 ******************************************
 Gaussian 16:  ES64L-G16RevC.01  3-Jul-2019
                24-Jun-2022 
 ******************************************
 %mem=8000Mb
 %NProc=4
 Will use up to    4 processors via shared memory.
 %oldchk=tddft-s2-uo2_cl2.pbe0-d3.optg.chk
 %chk=tddft-s2-uo2_cl2.pbe0-d3.freq.chk
 Copying data from "tddft-s2-uo2_cl2.pbe0-d3.optg.chk" to current chk file "tddft-s2-uo2_cl2.pbe0-d3.freq.chk"
 IOpt=  2 FromEx=T IUOpen= 4 IOptOp= 5 NList=   0 IFRang= 0 IUIn= 4 IUOut= 2.
 ----------------------------------------------------------------------
 #p PBE1PBE/GEN GFInput GFPrint 5D 7F Pseudo=Read IOP(2/9=2, 4/69=2, 6/
 7=3, 8/10=91, 8/37=22, 8/38=0) EmpiricalDispersion=GD3BJ Symm=(Loose) 
 Int=(UltraFine) Guess=(CheckPoint) Geom=CheckPoint Scf=(NoVarAcc,MaxCy
 cle=100,conver=8) td=(triplets,nstates=4,root=2) Freq
 ----------------------------------------------------------------------
 1/10=4,29=2,30=1,38=1/1,3;
 2/9=2,12=2,17=4,18=3,40=1/2;
 3/5=7,8=11,11=9,14=-4,16=1,17=8,24=110,25=1,30=1,71=2,74=-13,75=-5,116=-2,124=41,140=1/1,2,3,8;
 4/5=1,69=2/1;
 5/5=2,6=8,7=100,38=6,98=1/2;
 8/6=1,10=91,37=22,107=2,108=4/1;
 9/8=2,15=3,41=4,42=1,48=3,70=2/14;
 10/5=2004,20=4,28=2/2;
 11/6=1,8=1,12=-2,16=1,42=3/1,2,10;
 10/6=3,21=1,28=2/2,14;
 6/7=3,8=2,9=2,10=2/1;
 7/8=1,10=1,12=6,13=8,14=2,25=1,44=2/1,2,3,16;
 1/10=4,30=1/3;
 99//99;
 Leave Link    1 at Fri Jun 24 11:47:05 2022, MaxMem=  1048576000 cpu:               0.8 elap:               0.2
 (Enter /home/pcmt/gaussian/g16.C.01/g16/l101.exe)
 ---------------------------
 [UO2Cl4]2- - PBE0+D3BJ - ES
 ---------------------------
 Structure from the checkpoint file:  "tddft-s2-uo2_cl2.pbe0-d3.freq.chk"
 Charge =  0 Multiplicity = 1
 Redundant internal coordinates found in file.  (old form).
 U,0,0.,0.258882483,0.
 O,0,-1.7444175637,0.4694798785,0.
 O,0,1.7444175637,0.4694798785,0.
 Cl,0,0.,-1.2462533796,-2.0317916259
 Cl,0,0.,-1.2462533796,2.0317916259
 Recover connectivity data from disk.
 ITRead=  0  0  0  0  0
 MicOpt= -1 -1 -1 -1 -1
 NAtoms=      5 NQM=        5 NQMF=       0 NMMI=      0 NMMIF=      0
                NMic=       0 NMicF=      0.
                    Isotopes and Nuclear Properties:
 (Nuclear quadrupole moments (NQMom) in fm**2, nuclear magnetic moments (NMagM)
  in nuclear magnetons)

  Atom         1           2           3           4           5
 IAtWgt=         238          16          16          35          35
 AtmWgt= 238.0508000  15.9949146  15.9949146  34.9688527  34.9688527
 NucSpn=           0           0           0           3           3
 AtZEff=   0.0000000   5.6000000   5.6000000  14.2400000  14.2400000
 NQMom=    0.0000000   0.0000000   0.0000000  -8.1650000  -8.1650000
 NMagM=    0.0000000   0.0000000   0.0000000   0.8218740   0.8218740
 AtZNuc=  92.0000000   8.0000000   8.0000000  17.0000000  17.0000000
 Leave Link  101 at Fri Jun 24 11:47:06 2022, MaxMem=  1048576000 cpu:               1.1 elap:               0.7
 (Enter /home/pcmt/gaussian/g16.C.01/g16/l103.exe)

 GradGradGradGradGradGradGradGradGradGradGradGradGradGradGradGradGradGrad
 Berny optimization.
 Initialization pass.
                           ----------------------------
                           !    Initial Parameters    !
                           ! (Angstroms and Degrees)  !
 --------------------------                            --------------------------
 ! Name  Definition              Value          Derivative Info.                !
 --------------------------------------------------------------------------------
 ! R1    R(1,2)                  1.7571         calculate D2E/DX2 analytically  !
 ! R2    R(1,3)                  1.7571         calculate D2E/DX2 analytically  !
 ! R3    R(1,4)                  2.5286         calculate D2E/DX2 analytically  !
 ! R4    R(1,5)                  2.5286         calculate D2E/DX2 analytically  !
 ! A1    A(2,1,4)               94.0912         calculate D2E/DX2 analytically  !
 ! A2    A(2,1,5)               94.0912         calculate D2E/DX2 analytically  !
 ! A3    A(3,1,4)               94.0912         calculate D2E/DX2 analytically  !
 ! A4    A(3,1,5)               94.0912         calculate D2E/DX2 analytically  !
 ! A5    A(4,1,5)              106.9385         calculate D2E/DX2 analytically  !
 ! A6    L(2,1,3,4,-1)         188.1825         calculate D2E/DX2 analytically  !
 ! A7    L(2,1,3,4,-2)         168.9184         calculate D2E/DX2 analytically  !
 ! D1    D(2,1,5,4)             95.5408         calculate D2E/DX2 analytically  !
 ! D2    D(3,1,5,4)            -95.5408         calculate D2E/DX2 analytically  !
 --------------------------------------------------------------------------------
 Trust Radius=3.00D-01 FncErr=1.00D-07 GrdErr=1.00D-07 EigMax=2.50D+02 EigMin=1.00D-04
 Number of steps in this run=      2 maximum allowed number of steps=      2.
 GradGradGradGradGradGradGradGradGradGradGradGradGradGradGradGradGradGrad

 Leave Link  103 at Fri Jun 24 11:47:06 2022, MaxMem=  1048576000 cpu:               0.1 elap:               0.1
 (Enter /home/pcmt/gaussian/g16.C.01/g16/l202.exe)
                          Input orientation:                          
 ---------------------------------------------------------------------
 Center     Atomic      Atomic             Coordinates (Angstroms)
 Number     Number       Type             X           Y           Z
 ---------------------------------------------------------------------
      1         92           0       -0.000000    0.258882   -0.000000
      2          8           0       -1.744418    0.469480   -0.000000
      3          8           0        1.744418    0.469480    0.000000
      4         17           0        0.000000   -1.246253   -2.031792
      5         17           0       -0.000000   -1.246253    2.031792
 ---------------------------------------------------------------------
                    Distance matrix (angstroms):
                    1          2          3          4          5
     1  U    0.000000
     2  O    1.757084   0.000000
     3  O    1.757084   3.488835   0.000000
     4  Cl   2.528559   3.180395   3.180395   0.000000
     5  Cl   2.528559   3.180395   3.180395   4.063583   0.000000
 Stoichiometry    Cl2O2U
 Framework group  C2V[C2(U),SGV(O2),SGV'(Cl2)]
 Deg. of freedom     4
 Full point group                 C2V     NOp   4
 RotChk:  IX=0 Diff= 8.08D-15
 Largest Abelian subgroup         C2V     NOp   4
 Largest concise Abelian subgroup C2V     NOp   4
                         Standard orientation:                         
 ---------------------------------------------------------------------
 Center     Atomic      Atomic             Coordinates (Angstroms)
 Number     Number       Type             X           Y           Z
 ---------------------------------------------------------------------
      1         92           0        0.000000   -0.000000    0.336655
      2          8           0        0.000000    1.744418    0.547253
      3          8           0       -0.000000   -1.744418    0.547253
      4         17           0        2.031792   -0.000000   -1.168481
      5         17           0       -2.031792    0.000000   -1.168481
 ---------------------------------------------------------------------
 Rotational constants (GHZ):           2.2102895           1.3090684           1.2032296
 Leave Link  202 at Fri Jun 24 11:47:06 2022, MaxMem=  1048576000 cpu:               0.2 elap:               0.2
 (Enter /home/pcmt/gaussian/g16.C.01/g16/l301.exe)
 General basis read from cards:  (5D, 7F)
 Centers:       1
 S 3 1.00
     Exponent=  1.2098082000D+04 Coefficients=  1.0200000000D-04
     Exponent=  1.8337573000D+03 Coefficients=  7.7100000000D-04
     Exponent=  3.5168632000D+02 Coefficients=  2.9690000000D-03
 S 1 1.00
     Exponent=  1.0431426000D+02 Coefficients=  1.0000000000D+00
 S 3 1.00
     Exponent=  6.0905822000D+01 Coefficients=  4.9868000000D-02
     Exponent=  3.5515086000D+01 Coefficients= -2.4531300000D-01
     Exponent=  2.0891227000D+01 Coefficients=  7.2384700000D-01
 S 1 1.00
     Exponent=  1.0184647000D+01 Coefficients=  1.0000000000D+00
 S 1 1.00
     Exponent=  2.8518510000D+00 Coefficients=  1.0000000000D+00
 S 1 1.00
     Exponent=  1.5316160000D+00 Coefficients=  1.0000000000D+00
 S 1 1.00
     Exponent=  6.1620300000D-01 Coefficients=  1.0000000000D+00
 S 1 1.00
     Exponent=  2.7949400000D-01 Coefficients=  1.0000000000D+00
 S 1 1.00
     Exponent=  5.7253000000D-02 Coefficients=  1.0000000000D+00
 S 1 1.00
     Exponent=  2.3443000000D-02 Coefficients=  1.0000000000D+00
 P 5 1.00
     Exponent=  2.9068451000D+03 Coefficients=  8.8000000000D-05
     Exponent=  6.9440053000D+02 Coefficients=  7.3200000000D-04
     Exponent=  2.2463479000D+02 Coefficients=  3.4140000000D-03
     Exponent=  8.0520526000D+01 Coefficients=  1.1099000000D-02
     Exponent=  2.4080211000D+01 Coefficients=  2.5216000000D-02
 P 1 1.00
     Exponent=  1.4077580000D+01 Coefficients=  1.0000000000D+00
 P 1 1.00
     Exponent=  8.2658460000D+00 Coefficients=  1.0000000000D+00
 P 1 1.00
     Exponent=  3.4236070000D+00 Coefficients=  1.0000000000D+00
 P 1 1.00
     Exponent=  1.7084170000D+00 Coefficients=  1.0000000000D+00
 P 1 1.00
     Exponent=  6.5504600000D-01 Coefficients=  1.0000000000D+00
 P 1 1.00
     Exponent=  2.8375500000D-01 Coefficients=  1.0000000000D+00
 P 1 1.00
     Exponent=  1.0181400000D-01 Coefficients=  1.0000000000D+00
 P 1 1.00
     Exponent=  3.0535000000D-02 Coefficients=  1.0000000000D+00
 D 6 1.00
     Exponent=  4.4901953000D+02 Coefficients=  5.0000000000D-05
     Exponent=  1.5635695000D+02 Coefficients=  3.2200000000D-04
     Exponent=  6.0242439000D+01 Coefficients=  1.7770000000D-03
     Exponent=  1.7772317000D+01 Coefficients=  2.5385000000D-02
     Exponent=  1.0454304000D+01 Coefficients= -8.9378000000D-02
     Exponent=  3.5834330000D+00 Coefficients=  4.4479900000D-01
 D 1 1.00
     Exponent=  1.7637240000D+00 Coefficients=  1.0000000000D+00
 D 1 1.00
     Exponent=  7.8403000000D-01 Coefficients=  1.0000000000D+00
 D 1 1.00
     Exponent=  2.7612700000D-01 Coefficients=  1.0000000000D+00
 D 1 1.00
     Exponent=  8.6980000000D-02 Coefficients=  1.0000000000D+00
 F 5 1.00
     Exponent=  1.0528793000D+02 Coefficients=  2.2800000000D-04
     Exponent=  3.5101181000D+01 Coefficients=  2.3080000000D-03
     Exponent=  1.4564138000D+01 Coefficients=  9.2530000000D-03
     Exponent=  4.6518850000D+00 Coefficients=  1.3694900000D-01
     Exponent=  2.2559730000D+00 Coefficients=  3.3980100000D-01
 F 1 1.00
     Exponent=  1.0102740000D+00 Coefficients=  1.0000000000D+00
 F 1 1.00
     Exponent=  4.1168000000D-01 Coefficients=  1.0000000000D+00
 F 1 1.00
     Exponent=  1.4412000000D-01 Coefficients=  1.0000000000D+00
 G 4 1.00
     Exponent=  1.0528793000D+02 Coefficients=  1.3700000000D-04
     Exponent=  3.5101181000D+01 Coefficients=  1.8310000000D-03
     Exponent=  1.4564138000D+01 Coefficients=  1.9940000000D-02
     Exponent=  4.6518850000D+00 Coefficients=  1.1075800000D-01
 G 1 1.00
     Exponent=  2.2559730000D+00 Coefficients=  1.0000000000D+00
 G 1 1.00
     Exponent=  1.0102740000D+00 Coefficients=  1.0000000000D+00
 ****
 Centers:       4      5
 Def2TZVP
 ****
 Centers:       2      3
 Def2TZVP
 ****
 ======================================================================================================
                                       Pseudopotential Parameters
 ======================================================================================================
  Center     Atomic      Valence      Angular      Power
  Number     Number     Electrons     Momentum     of R      Exponent        Coefficient   SO-Coeffient
 ======================================================================================================
    1         92           32
                                      H and up 
                                                     2        1.0000000        0.00000000    0.00000000
                                      S - H
                                                     2       16.4140387      536.51662778    0.00000000
                                      P - H
                                                     2        9.0605561      169.54492465    0.00000000
                                      D - H
                                                     2        8.8318320      142.61559837    0.00000000
                                      F - H
                                                     2        7.0185163       60.39307602    0.00000000
                                      G - H
                                                     2       12.8040884      -60.12998958    0.00000000
    2          8
                                   No pseudopotential on this center.
    3          8
                                   No pseudopotential on this center.
    4         17
                                   No pseudopotential on this center.
    5         17
                                   No pseudopotential on this center.
 ======================================================================================================
 Ernie: Thresh=  0.10000D-02 Tol=  0.10000D-05 Strict=F.
 AO basis set in the form of general basis input (Overlap normalization):
      1 0
 S   3 1.00       0.000000000000
      0.1209808200D+05  0.2884168448D-01
      0.1833757300D+04  0.2180092033D+00
      0.3516863200D+03  0.8395192276D+00
 S   3 1.00       0.000000000000
      0.6090582200D+02  0.9338504807D-01
      0.3551508600D+02 -0.4593840999D+00
      0.2089122700D+02  0.1355508280D+01
 S   1 1.00       0.000000000000
      0.1043142600D+03  0.1000000000D+01
 S   1 1.00       0.000000000000
      0.1018464700D+02  0.1000000000D+01
 S   1 1.00       0.000000000000
      0.2851851000D+01  0.1000000000D+01
 S   1 1.00       0.000000000000
      0.1531616000D+01  0.1000000000D+01
 S   1 1.00       0.000000000000
      0.6162030000D+00  0.1000000000D+01
 S   1 1.00       0.000000000000
      0.2794940000D+00  0.1000000000D+01
 S   1 1.00       0.000000000000
      0.5725300000D-01  0.1000000000D+01
 S   1 1.00       0.000000000000
      0.2344300000D-01  0.1000000000D+01
 P   5 1.00       0.000000000000
      0.2906845100D+04  0.2490724940D-02
      0.6944005300D+03  0.2071830291D-01
      0.2246347900D+03  0.9662880620D-01
      0.8052052600D+02  0.3141426831D+00
      0.2408021100D+02  0.7137059101D+00
 P   1 1.00       0.000000000000
      0.1407758000D+02  0.1000000000D+01
 P   1 1.00       0.000000000000
      0.8265846000D+01  0.1000000000D+01
 P   1 1.00       0.000000000000
      0.3423607000D+01  0.1000000000D+01
 P   1 1.00       0.000000000000
      0.1708417000D+01  0.1000000000D+01
 P   1 1.00       0.000000000000
      0.6550460000D+00  0.1000000000D+01
 P   1 1.00       0.000000000000
      0.2837550000D+00  0.1000000000D+01
 P   1 1.00       0.000000000000
      0.1018140000D+00  0.1000000000D+01
 P   1 1.00       0.000000000000
      0.3053500000D-01  0.1000000000D+01
 D   6 1.00       0.000000000000
      0.4490195300D+03  0.1244413406D-03
      0.1563569500D+03  0.8014022332D-03
      0.6024243900D+02  0.4422645243D-02
      0.1777231700D+02  0.6317886860D-01
      0.1045430400D+02 -0.2224463627D+00
      0.3583433000D+01  0.1107027677D+01
 D   1 1.00       0.000000000000
      0.1763724000D+01  0.1000000000D+01
 D   1 1.00       0.000000000000
      0.7840300000D+00  0.1000000000D+01
 D   1 1.00       0.000000000000
      0.2761270000D+00  0.1000000000D+01
 D   1 1.00       0.000000000000
      0.8698000000D-01  0.1000000000D+01
 F   5 1.00       0.000000000000
      0.1052879300D+03  0.5015876177D-03
      0.3510118100D+02  0.5077474656D-02
      0.1456413800D+02  0.2035609748D-01
      0.4651885000D+01  0.3012803625D+00
      0.2255973000D+01  0.7475437460D+00
 F   1 1.00       0.000000000000
      0.1010274000D+01  0.1000000000D+01
 F   1 1.00       0.000000000000
      0.4116800000D+00  0.1000000000D+01
 F   1 1.00       0.000000000000
      0.1441200000D+00  0.1000000000D+01
 G   4 1.00       0.000000000000
      0.1052879300D+03  0.1132460043D-02
      0.3510118100D+02  0.1513528715D-01
      0.1456413800D+02  0.1648266662D+00
      0.4651885000D+01  0.9155402153D+00
 G   1 1.00       0.000000000000
      0.2255973000D+01  0.1000000000D+01
 G   1 1.00       0.000000000000
      0.1010274000D+01  0.1000000000D+01
 ****
      2 0
 S   6 1.00       0.000000000000
      0.2703238263D+05  0.5722733521D-03
      0.4052387139D+04  0.4435323349D-02
      0.9223272271D+03  0.2302010771D-01
      0.2612407099D+03  0.9282249067D-01
      0.8535464135D+02  0.2937850001D+00
      0.3103503524D+02  0.6740160450D+00
 S   2 1.00       0.000000000000
      0.1226086073D+02  0.6383993703D+00
      0.4998707601D+01  0.3953458713D+00
 S   1 1.00       0.000000000000
      0.1170310816D+01  0.1000000000D+01
 S   1 1.00       0.000000000000
      0.4647474099D+00  0.1000000000D+01
 S   1 1.00       0.000000000000
      0.1850453636D+00  0.1000000000D+01
 P   4 1.00       0.000000000000
      0.6327495480D+02  0.1201833222D-01
      0.1462704938D+02  0.8300542179D-01
      0.4450122346D+01  0.3199174393D+00
      0.1527579965D+01  0.7071554292D+00
 P   1 1.00       0.000000000000
      0.5293511794D+00  0.1000000000D+01
 P   1 1.00       0.000000000000
      0.1747842127D+00  0.1000000000D+01
 D   1 1.00       0.000000000000
      0.2314000000D+01  0.1000000000D+01
 D   1 1.00       0.000000000000
      0.6450000000D+00  0.1000000000D+01
 F   1 1.00       0.000000000000
      0.1428000000D+01  0.1000000000D+01
 ****
      3 0
 S   6 1.00       0.000000000000
      0.2703238263D+05  0.5722733521D-03
      0.4052387139D+04  0.4435323349D-02
      0.9223272271D+03  0.2302010771D-01
      0.2612407099D+03  0.9282249067D-01
      0.8535464135D+02  0.2937850001D+00
      0.3103503524D+02  0.6740160450D+00
 S   2 1.00       0.000000000000
      0.1226086073D+02  0.6383993703D+00
      0.4998707601D+01  0.3953458713D+00
 S   1 1.00       0.000000000000
      0.1170310816D+01  0.1000000000D+01
 S   1 1.00       0.000000000000
      0.4647474099D+00  0.1000000000D+01
 S   1 1.00       0.000000000000
      0.1850453636D+00  0.1000000000D+01
 P   4 1.00       0.000000000000
      0.6327495480D+02  0.1201833222D-01
      0.1462704938D+02  0.8300542179D-01
      0.4450122346D+01  0.3199174393D+00
      0.1527579965D+01  0.7071554292D+00
 P   1 1.00       0.000000000000
      0.5293511794D+00  0.1000000000D+01
 P   1 1.00       0.000000000000
      0.1747842127D+00  0.1000000000D+01
 D   1 1.00       0.000000000000
      0.2314000000D+01  0.1000000000D+01
 D   1 1.00       0.000000000000
      0.6450000000D+00  0.1000000000D+01
 F   1 1.00       0.000000000000
      0.1428000000D+01  0.1000000000D+01
 ****
      4 0
 S   7 1.00       0.000000000000
      0.6950799094D+05  0.5145738965D-03
      0.1042615688D+05  0.3978134481D-02
      0.2373233406D+04  0.2045617867D-01
      0.6715642007D+03  0.8014810289D-01
      0.2184199979D+03  0.2345477032D+00
      0.7757224971D+02  0.4454336858D+00
      0.2888881528D+02  0.3546684250D+00
 S   3 1.00       0.000000000000
      0.1271052718D+03  0.1129368805D+00
      0.3933958296D+02  0.4837351421D+00
      0.7674067999D+01 -0.1229229739D+01
 S   2 1.00       0.000000000000
      0.3874562763D+01  0.6729682164D+00
      0.1838583257D+01  0.3495605141D+00
 S   1 1.00       0.000000000000
      0.5022905754D+00  0.1000000000D+01
 S   1 1.00       0.000000000000
      0.1796272342D+00  0.1000000000D+01
 P   5 1.00       0.000000000000
      0.6665042328D+03  0.3350250820D-02
      0.1576424169D+03  0.2676397041D-01
      0.5026252098D+02  0.1236268236D+00
      0.1853607811D+02  0.3584578792D+00
      0.7294053278D+01  0.6167729635D+00
 P   1 1.00       0.000000000000
      0.2943324899D+01  0.1000000000D+01
 P   1 1.00       0.000000000000
      0.1040497082D+01  0.1000000000D+01
 P   1 1.00       0.000000000000
      0.3845641508D+00  0.1000000000D+01
 P   1 1.00       0.000000000000
      0.1306964273D+00  0.1000000000D+01
 D   2 1.00       0.000000000000
      0.4610000000D+01  0.1826583505D+00
      0.1011000000D+01  0.9132917523D+00
 D   1 1.00       0.000000000000
      0.3390000000D+00  0.1000000000D+01
 F   1 1.00       0.000000000000
      0.7060000000D+00  0.1000000000D+01
 ****
      5 0
 S   7 1.00       0.000000000000
      0.6950799094D+05  0.5145738965D-03
      0.1042615688D+05  0.3978134481D-02
      0.2373233406D+04  0.2045617867D-01
      0.6715642007D+03  0.8014810289D-01
      0.2184199979D+03  0.2345477032D+00
      0.7757224971D+02  0.4454336858D+00
      0.2888881528D+02  0.3546684250D+00
 S   3 1.00       0.000000000000
      0.1271052718D+03  0.1129368805D+00
      0.3933958296D+02  0.4837351421D+00
      0.7674067999D+01 -0.1229229739D+01
 S   2 1.00       0.000000000000
      0.3874562763D+01  0.6729682164D+00
      0.1838583257D+01  0.3495605141D+00
 S   1 1.00       0.000000000000
      0.5022905754D+00  0.1000000000D+01
 S   1 1.00       0.000000000000
      0.1796272342D+00  0.1000000000D+01
 P   5 1.00       0.000000000000
      0.6665042328D+03  0.3350250820D-02
      0.1576424169D+03  0.2676397041D-01
      0.5026252098D+02  0.1236268236D+00
      0.1853607811D+02  0.3584578792D+00
      0.7294053278D+01  0.6167729635D+00
 P   1 1.00       0.000000000000
      0.2943324899D+01  0.1000000000D+01
 P   1 1.00       0.000000000000
      0.1040497082D+01  0.1000000000D+01
 P   1 1.00       0.000000000000
      0.3845641508D+00  0.1000000000D+01
 P   1 1.00       0.000000000000
      0.1306964273D+00  0.1000000000D+01
 D   2 1.00       0.000000000000
      0.4610000000D+01  0.1826583505D+00
      0.1011000000D+01  0.9132917523D+00
 D   1 1.00       0.000000000000
      0.3390000000D+00  0.1000000000D+01
 F   1 1.00       0.000000000000
      0.7060000000D+00  0.1000000000D+01
 ****

 AO basis set (Overlap normalization):
 Atom U1       Shell     1 S   3     bf    1 -     1          0.000000000000          0.000000000000          0.636186427182
      0.1209808200D+05  0.2884168448D-01
      0.1833757300D+04  0.2180092033D+00
      0.3516863200D+03  0.8395192276D+00
 Atom U1       Shell     2 S   3     bf    2 -     2          0.000000000000          0.000000000000          0.636186427182
      0.6090582200D+02  0.9338504807D-01
      0.3551508600D+02 -0.4593840999D+00
      0.2089122700D+02  0.1355508280D+01
 Atom U1       Shell     3 S   1     bf    3 -     3          0.000000000000          0.000000000000          0.636186427182
      0.1043142600D+03  0.1000000000D+01
 Atom U1       Shell     4 S   1     bf    4 -     4          0.000000000000          0.000000000000          0.636186427182
      0.1018464700D+02  0.1000000000D+01
 Atom U1       Shell     5 S   1     bf    5 -     5          0.000000000000          0.000000000000          0.636186427182
      0.2851851000D+01  0.1000000000D+01
 Atom U1       Shell     6 S   1     bf    6 -     6          0.000000000000          0.000000000000          0.636186427182
      0.1531616000D+01  0.1000000000D+01
 Atom U1       Shell     7 S   1     bf    7 -     7          0.000000000000          0.000000000000          0.636186427182
      0.6162030000D+00  0.1000000000D+01
 Atom U1       Shell     8 S   1     bf    8 -     8          0.000000000000          0.000000000000          0.636186427182
      0.2794940000D+00  0.1000000000D+01
 Atom U1       Shell     9 S   1     bf    9 -     9          0.000000000000          0.000000000000          0.636186427182
      0.5725300000D-01  0.1000000000D+01
 Atom U1       Shell    10 S   1     bf   10 -    10          0.000000000000          0.000000000000          0.636186427182
      0.2344300000D-01  0.1000000000D+01
 Atom U1       Shell    11 P   5     bf   11 -    13          0.000000000000          0.000000000000          0.636186427182
      0.2906845100D+04  0.2490724940D-02
      0.6944005300D+03  0.2071830291D-01
      0.2246347900D+03  0.9662880620D-01
      0.8052052600D+02  0.3141426831D+00
      0.2408021100D+02  0.7137059101D+00
 Atom U1       Shell    12 P   1     bf   14 -    16          0.000000000000          0.000000000000          0.636186427182
      0.1407758000D+02  0.1000000000D+01
 Atom U1       Shell    13 P   1     bf   17 -    19          0.000000000000          0.000000000000          0.636186427182
      0.8265846000D+01  0.1000000000D+01
 Atom U1       Shell    14 P   1     bf   20 -    22          0.000000000000          0.000000000000          0.636186427182
      0.3423607000D+01  0.1000000000D+01
 Atom U1       Shell    15 P   1     bf   23 -    25          0.000000000000          0.000000000000          0.636186427182
      0.1708417000D+01  0.1000000000D+01
 Atom U1       Shell    16 P   1     bf   26 -    28          0.000000000000          0.000000000000          0.636186427182
      0.6550460000D+00  0.1000000000D+01
 Atom U1       Shell    17 P   1     bf   29 -    31          0.000000000000          0.000000000000          0.636186427182
      0.2837550000D+00  0.1000000000D+01
 Atom U1       Shell    18 P   1     bf   32 -    34          0.000000000000          0.000000000000          0.636186427182
      0.1018140000D+00  0.1000000000D+01
 Atom U1       Shell    19 P   1     bf   35 -    37          0.000000000000          0.000000000000          0.636186427182
      0.3053500000D-01  0.1000000000D+01
 Atom U1       Shell    20 D   6     bf   38 -    42          0.000000000000          0.000000000000          0.636186427182
      0.4490195300D+03  0.1244413406D-03
      0.1563569500D+03  0.8014022332D-03
      0.6024243900D+02  0.4422645243D-02
      0.1777231700D+02  0.6317886860D-01
      0.1045430400D+02 -0.2224463627D+00
      0.3583433000D+01  0.1107027677D+01
 Atom U1       Shell    21 D   1     bf   43 -    47          0.000000000000          0.000000000000          0.636186427182
      0.1763724000D+01  0.1000000000D+01
 Atom U1       Shell    22 D   1     bf   48 -    52          0.000000000000          0.000000000000          0.636186427182
      0.7840300000D+00  0.1000000000D+01
 Atom U1       Shell    23 D   1     bf   53 -    57          0.000000000000          0.000000000000          0.636186427182
      0.2761270000D+00  0.1000000000D+01
 Atom U1       Shell    24 D   1     bf   58 -    62          0.000000000000          0.000000000000          0.636186427182
      0.8698000000D-01  0.1000000000D+01
 Atom U1       Shell    25 F   5     bf   63 -    69          0.000000000000          0.000000000000          0.636186427182
      0.1052879300D+03  0.5015876177D-03
      0.3510118100D+02  0.5077474656D-02
      0.1456413800D+02  0.2035609748D-01
      0.4651885000D+01  0.3012803625D+00
      0.2255973000D+01  0.7475437460D+00
 Atom U1       Shell    26 F   1     bf   70 -    76          0.000000000000          0.000000000000          0.636186427182
      0.1010274000D+01  0.1000000000D+01
 Atom U1       Shell    27 F   1     bf   77 -    83          0.000000000000          0.000000000000          0.636186427182
      0.4116800000D+00  0.1000000000D+01
 Atom U1       Shell    28 F   1     bf   84 -    90          0.000000000000          0.000000000000          0.636186427182
      0.1441200000D+00  0.1000000000D+01
 Atom U1       Shell    29 G   4     bf   91 -    99          0.000000000000          0.000000000000          0.636186427182
      0.1052879300D+03  0.1132460043D-02
      0.3510118100D+02  0.1513528715D-01
      0.1456413800D+02  0.1648266662D+00
      0.4651885000D+01  0.9155402153D+00
 Atom U1       Shell    30 G   1     bf  100 -   108          0.000000000000          0.000000000000          0.636186427182
      0.2255973000D+01  0.1000000000D+01
 Atom U1       Shell    31 G   1     bf  109 -   117          0.000000000000          0.000000000000          0.636186427182
      0.1010274000D+01  0.1000000000D+01
 Atom O2       Shell    32 S   6     bf  118 -   118         -0.000000000000          3.296471442182          1.034157827299
      0.2703238263D+05  0.5722733521D-03
      0.4052387139D+04  0.4435323349D-02
      0.9223272271D+03  0.2302010771D-01
      0.2612407099D+03  0.9282249067D-01
      0.8535464135D+02  0.2937850001D+00
      0.3103503524D+02  0.6740160450D+00
 Atom O2       Shell    33 S   2     bf  119 -   119         -0.000000000000          3.296471442182          1.034157827299
      0.1226086073D+02  0.6383993703D+00
      0.4998707601D+01  0.3953458713D+00
 Atom O2       Shell    34 S   1     bf  120 -   120         -0.000000000000          3.296471442182          1.034157827299
      0.1170310816D+01  0.1000000000D+01
 Atom O2       Shell    35 S   1     bf  121 -   121         -0.000000000000          3.296471442182          1.034157827299
      0.4647474099D+00  0.1000000000D+01
 Atom O2       Shell    36 S   1     bf  122 -   122         -0.000000000000          3.296471442182          1.034157827299
      0.1850453636D+00  0.1000000000D+01
 Atom O2       Shell    37 P   4     bf  123 -   125         -0.000000000000          3.296471442182          1.034157827299
      0.6327495480D+02  0.1201833222D-01
      0.1462704938D+02  0.8300542179D-01
      0.4450122346D+01  0.3199174393D+00
      0.1527579965D+01  0.7071554292D+00
 Atom O2       Shell    38 P   1     bf  126 -   128         -0.000000000000          3.296471442182          1.034157827299
      0.5293511794D+00  0.1000000000D+01
 Atom O2       Shell    39 P   1     bf  129 -   131         -0.000000000000          3.296471442182          1.034157827299
      0.1747842127D+00  0.1000000000D+01
 Atom O2       Shell    40 D   1     bf  132 -   136         -0.000000000000          3.296471442182          1.034157827299
      0.2314000000D+01  0.1000000000D+01
 Atom O2       Shell    41 D   1     bf  137 -   141         -0.000000000000          3.296471442182          1.034157827299
      0.6450000000D+00  0.1000000000D+01
 Atom O2       Shell    42 F   1     bf  142 -   148         -0.000000000000          3.296471442182          1.034157827299
      0.1428000000D+01  0.1000000000D+01
 Atom O3       Shell    43 S   6     bf  149 -   149         -0.000000000000         -3.296471442182          1.034157827299
      0.2703238263D+05  0.5722733521D-03
      0.4052387139D+04  0.4435323349D-02
      0.9223272271D+03  0.2302010771D-01
      0.2612407099D+03  0.9282249067D-01
      0.8535464135D+02  0.2937850001D+00
      0.3103503524D+02  0.6740160450D+00
 Atom O3       Shell    44 S   2     bf  150 -   150         -0.000000000000         -3.296471442182          1.034157827299
      0.1226086073D+02  0.6383993703D+00
      0.4998707601D+01  0.3953458713D+00
 Atom O3       Shell    45 S   1     bf  151 -   151         -0.000000000000         -3.296471442182          1.034157827299
      0.1170310816D+01  0.1000000000D+01
 Atom O3       Shell    46 S   1     bf  152 -   152         -0.000000000000         -3.296471442182          1.034157827299
      0.4647474099D+00  0.1000000000D+01
 Atom O3       Shell    47 S   1     bf  153 -   153         -0.000000000000         -3.296471442182          1.034157827299
      0.1850453636D+00  0.1000000000D+01
 Atom O3       Shell    48 P   4     bf  154 -   156         -0.000000000000         -3.296471442182          1.034157827299
      0.6327495480D+02  0.1201833222D-01
      0.1462704938D+02  0.8300542179D-01
      0.4450122346D+01  0.3199174393D+00
      0.1527579965D+01  0.7071554292D+00
 Atom O3       Shell    49 P   1     bf  157 -   159         -0.000000000000         -3.296471442182          1.034157827299
      0.5293511794D+00  0.1000000000D+01
 Atom O3       Shell    50 P   1     bf  160 -   162         -0.000000000000         -3.296471442182          1.034157827299
      0.1747842127D+00  0.1000000000D+01
 Atom O3       Shell    51 D   1     bf  163 -   167         -0.000000000000         -3.296471442182          1.034157827299
      0.2314000000D+01  0.1000000000D+01
 Atom O3       Shell    52 D   1     bf  168 -   172         -0.000000000000         -3.296471442182          1.034157827299
      0.6450000000D+00  0.1000000000D+01
 Atom O3       Shell    53 F   1     bf  173 -   179         -0.000000000000         -3.296471442182          1.034157827299
      0.1428000000D+01  0.1000000000D+01
 Atom Cl4      Shell    54 S   7     bf  180 -   180          3.839529715176         -0.000000000000         -2.208108133457
      0.6950799094D+05  0.5145738965D-03
      0.1042615688D+05  0.3978134481D-02
      0.2373233406D+04  0.2045617867D-01
      0.6715642007D+03  0.8014810289D-01
      0.2184199979D+03  0.2345477032D+00
      0.7757224971D+02  0.4454336858D+00
      0.2888881528D+02  0.3546684250D+00
 Atom Cl4      Shell    55 S   3     bf  181 -   181          3.839529715176         -0.000000000000         -2.208108133457
      0.1271052718D+03  0.1129368805D+00
      0.3933958296D+02  0.4837351421D+00
      0.7674067999D+01 -0.1229229739D+01
 Atom Cl4      Shell    56 S   2     bf  182 -   182          3.839529715176         -0.000000000000         -2.208108133457
      0.3874562763D+01  0.6729682164D+00
      0.1838583257D+01  0.3495605141D+00
 Atom Cl4      Shell    57 S   1     bf  183 -   183          3.839529715176         -0.000000000000         -2.208108133457
      0.5022905754D+00  0.1000000000D+01
 Atom Cl4      Shell    58 S   1     bf  184 -   184          3.839529715176         -0.000000000000         -2.208108133457
      0.1796272342D+00  0.1000000000D+01
 Atom Cl4      Shell    59 P   5     bf  185 -   187          3.839529715176         -0.000000000000         -2.208108133457
      0.6665042328D+03  0.3350250820D-02
      0.1576424169D+03  0.2676397041D-01
      0.5026252098D+02  0.1236268236D+00
      0.1853607811D+02  0.3584578792D+00
      0.7294053278D+01  0.6167729635D+00
 Atom Cl4      Shell    60 P   1     bf  188 -   190          3.839529715176         -0.000000000000         -2.208108133457
      0.2943324899D+01  0.1000000000D+01
 Atom Cl4      Shell    61 P   1     bf  191 -   193          3.839529715176         -0.000000000000         -2.208108133457
      0.1040497082D+01  0.1000000000D+01
 Atom Cl4      Shell    62 P   1     bf  194 -   196          3.839529715176         -0.000000000000         -2.208108133457
      0.3845641508D+00  0.1000000000D+01
 Atom Cl4      Shell    63 P   1     bf  197 -   199          3.839529715176         -0.000000000000         -2.208108133457
      0.1306964273D+00  0.1000000000D+01
 Atom Cl4      Shell    64 D   2     bf  200 -   204          3.839529715176         -0.000000000000         -2.208108133457
      0.4610000000D+01  0.1826583505D+00
      0.1011000000D+01  0.9132917523D+00
 Atom Cl4      Shell    65 D   1     bf  205 -   209          3.839529715176         -0.000000000000         -2.208108133457
      0.3390000000D+00  0.1000000000D+01
 Atom Cl4      Shell    66 F   1     bf  210 -   216          3.839529715176         -0.000000000000         -2.208108133457
      0.7060000000D+00  0.1000000000D+01
 Atom Cl5      Shell    67 S   7     bf  217 -   217         -3.839529715176          0.000000000000         -2.208108133457
      0.6950799094D+05  0.5145738965D-03
      0.1042615688D+05  0.3978134481D-02
      0.2373233406D+04  0.2045617867D-01
      0.6715642007D+03  0.8014810289D-01
      0.2184199979D+03  0.2345477032D+00
      0.7757224971D+02  0.4454336858D+00
      0.2888881528D+02  0.3546684250D+00
 Atom Cl5      Shell    68 S   3     bf  218 -   218         -3.839529715176          0.000000000000         -2.208108133457
      0.1271052718D+03  0.1129368805D+00
      0.3933958296D+02  0.4837351421D+00
      0.7674067999D+01 -0.1229229739D+01
 Atom Cl5      Shell    69 S   2     bf  219 -   219         -3.839529715176          0.000000000000         -2.208108133457
      0.3874562763D+01  0.6729682164D+00
      0.1838583257D+01  0.3495605141D+00
 Atom Cl5      Shell    70 S   1     bf  220 -   220         -3.839529715176          0.000000000000         -2.208108133457
      0.5022905754D+00  0.1000000000D+01
 Atom Cl5      Shell    71 S   1     bf  221 -   221         -3.839529715176          0.000000000000         -2.208108133457
      0.1796272342D+00  0.1000000000D+01
 Atom Cl5      Shell    72 P   5     bf  222 -   224         -3.839529715176          0.000000000000         -2.208108133457
      0.6665042328D+03  0.3350250820D-02
      0.1576424169D+03  0.2676397041D-01
      0.5026252098D+02  0.1236268236D+00
      0.1853607811D+02  0.3584578792D+00
      0.7294053278D+01  0.6167729635D+00
 Atom Cl5      Shell    73 P   1     bf  225 -   227         -3.839529715176          0.000000000000         -2.208108133457
      0.2943324899D+01  0.1000000000D+01
 Atom Cl5      Shell    74 P   1     bf  228 -   230         -3.839529715176          0.000000000000         -2.208108133457
      0.1040497082D+01  0.1000000000D+01
 Atom Cl5      Shell    75 P   1     bf  231 -   233         -3.839529715176          0.000000000000         -2.208108133457
      0.3845641508D+00  0.1000000000D+01
 Atom Cl5      Shell    76 P   1     bf  234 -   236         -3.839529715176          0.000000000000         -2.208108133457
      0.1306964273D+00  0.1000000000D+01
 Atom Cl5      Shell    77 D   2     bf  237 -   241         -3.839529715176          0.000000000000         -2.208108133457
      0.4610000000D+01  0.1826583505D+00
      0.1011000000D+01  0.9132917523D+00
 Atom Cl5      Shell    78 D   1     bf  242 -   246         -3.839529715176          0.000000000000         -2.208108133457
      0.3390000000D+00  0.1000000000D+01
 Atom Cl5      Shell    79 F   1     bf  247 -   253         -3.839529715176          0.000000000000         -2.208108133457
      0.7060000000D+00  0.1000000000D+01
 Effective core potential in the form of general ECP input:
      1 0
 U1-ECP   5 60
 H component
  1
  2        1.0000000        0.00000000    0.00000000
 S-H projection
  1
  2       16.4140387      536.51662778    0.00000000
 P-H projection
  1
  2        9.0605561      169.54492465    0.00000000
 D-H projection
  1
  2        8.8318320      142.61559837    0.00000000
 F-H projection
  1
  2        7.0185163       60.39307602    0.00000000
 G-H projection
  1
  2       12.8040884      -60.12998958    0.00000000
 
 There are   118 symmetry adapted cartesian basis functions of A1  symmetry.
 There are    42 symmetry adapted cartesian basis functions of A2  symmetry.
 There are    75 symmetry adapted cartesian basis functions of B1  symmetry.
 There are    73 symmetry adapted cartesian basis functions of B2  symmetry.
 There are    92 symmetry adapted basis functions of A1  symmetry.
 There are    37 symmetry adapted basis functions of A2  symmetry.
 There are    63 symmetry adapted basis functions of B1  symmetry.
 There are    61 symmetry adapted basis functions of B2  symmetry.
   253 basis functions,   523 primitive gaussians,   308 cartesian basis functions
    41 alpha electrons       41 beta electrons
       nuclear repulsion energy       519.7515863610 Hartrees.
 IExCor= 1009 DFT=T Ex+Corr=PBE1PBE ExCW=0 ScaHFX=  0.250000
 ScaDFX=  0.750000  0.750000  1.000000  1.000000 ScalE2=  1.000000  1.000000
 IRadAn=      5 IRanWt=     -1 IRanGd=            0 ICorTp=0 IEmpDi=141
 NAtoms=    5 NActive=    5 NUniq=    3 SFac= 2.78D+00 NAtFMM=   60 NAOKFM=F Big=F
 Integral buffers will be    131072 words long.
 Regular integral format.
 Two-electron integral symmetry is turned on.
 R6Disp:  Grimme-D3(BJ) Dispersion energy=       -0.0055976840 Hartrees.
 Nuclear repulsion after empirical dispersion term =      519.7459886770 Hartrees.
 Leave Link  301 at Fri Jun 24 11:47:06 2022, MaxMem=  1048576000 cpu:               0.6 elap:               0.4
 (Enter /home/pcmt/gaussian/g16.C.01/g16/l302.exe)
 NPDir=0 NMtPBC=     1 NCelOv=     1 NCel=       1 NClECP=     1 NCelD=      1
         NCelK=      1 NCelE2=     1 NClLst=     1 CellRange=     0.0.
 One-electron integrals computed using PRISM.
 One-electron integral symmetry used in STVInt
   4 Symmetry operations used in ECPInt.
 ECPInt:  NShTT=    3160 NPrTT=   10748 LenC2=    3029 LenP2D=    7887.
 LDataN:  DoStor=T MaxTD1= 9 Len=  602
 NBasis=   253 RedAO= T EigKep=  8.34D-04  NBF=    92    37    63    61
 NBsUse=   253 1.00D-06 EigRej= -1.00D+00 NBFU=    92    37    63    61
 Precomputing XC quadrature grid using
 IXCGrd= 4 IRadAn=           5 IRanWt=          -1 IRanGd=           0 AccXCQ= 0.00D+00.
 Defaulting to unpruned grid for atomic number  92.
 Generated NRdTot=       0 NPtTot=           0 NUsed=           0 NTot=          32
 NSgBfM=   303   303   303   303   303 MxSgAt=     5 MxSgA2=     5.
 Leave Link  302 at Fri Jun 24 11:47:08 2022, MaxMem=  1048576000 cpu:               4.4 elap:               1.5
 (Enter /home/pcmt/gaussian/g16.C.01/g16/l303.exe)
 DipDrv:  MaxL=1.
 Leave Link  303 at Fri Jun 24 11:47:08 2022, MaxMem=  1048576000 cpu:               0.3 elap:               0.1
 (Enter /home/pcmt/gaussian/g16.C.01/g16/l308.exe)
 Leave Link  308 at Fri Jun 24 11:47:09 2022, MaxMem=  1048576000 cpu:               0.4 elap:               0.3
 (Enter /home/pcmt/gaussian/g16.C.01/g16/l401.exe)
 Initial guess from the checkpoint file:  "tddft-s2-uo2_cl2.pbe0-d3.freq.chk"
 B after Tr=     0.000000    0.000000   -0.000000
         Rot=    1.000000   -0.000000    0.000000   -0.000000 Ang=   0.00 deg.
 Guess basis will be translated and rotated to current coordinates.
 JPrj=2 DoOrth=T DoCkMO=T.
 Initial guess orbital symmetries:
       Occupied  (A1) (B1) (B2) (A1) (A1) (A1) (B1) (A1) (B1) (B2)
                 (B1) (A1) (A1) (B1) (B2) (A2) (A1) (B1) (B2) (A2)
                 (A1) (A1) (B2) (A1) (B1) (A1) (A1) (B1) (B2) (B2)
                 (A2) (A1) (B1) (A1) (B2) (A1) (B1) (A1) (B1) (A2)
                 (B2)
       Virtual   (A1) (B1) (B2) (A2) (A1) (B1) (A1) (A1) (B1) (B2)
                 (A1) (B2) (B1) (A1) (A2) (B2) (B2) (A1) (A1) (B1)
                 (A2) (B1) (B2) (A1) (A1) (B2) (B1) (A1) (A2) (B1)
                 (A1) (A2) (B2) (B1) (A1) (B2) (A2) (B1) (A1) (B1)
                 (A1) (B2) (A1) (B2) (B1) (A1) (A2) (A1) (B2) (B1)
                 (A1) (B1) (A2) (B2) (A1) (B2) (A1) (B1) (A1) (A1)
                 (B1) (B1) (A1) (A2) (B2) (B2) (A1) (B1) (A1) (B1)
                 (B2) (A2) (B2) (A2) (A1) (A1) (A2) (A2) (B2) (B1)
                 (B2) (A1) (B1) (B1) (A1) (B2) (A1) (B2) (B1) (A2)
                 (B1) (A1) (A2) (B2) (A1) (B1) (A2) (B2) (A1) (B1)
                 (B1) (B2) (A1) (A2) (B1) (A1) (A1) (B2) (B2) (A1)
                 (B1) (A2) (A1) (B1) (A2) (A1) (B2) (B1) (B2) (A2)
                 (A1) (B1) (A1) (B2) (A2) (A1) (A1) (B1) (B2) (A1)
                 (B2) (B2) (B2) (A2) (B1) (A1) (A1) (B1) (A1) (B1)
                 (A2) (A2) (B2) (B1) (A1) (B2) (A1) (B2) (A2) (A1)
                 (B1) (B2) (A1) (B1) (A1) (B1) (A2) (B2) (A1) (A2)
                 (B1) (B2) (A1) (A2) (B2) (A1) (B1) (B2) (A1) (B1)
                 (A1) (B2) (A2) (A1) (B2) (A1) (A2) (B2) (B1) (A1)
                 (A1) (B1) (A2) (B2) (A1) (B1) (A2) (B2) (B1) (A1)
                 (A1) (B1) (A2) (B2) (A1) (A1) (B1) (B2) (B1) (A1)
                 (A1) (A1) (B2) (A1) (B1) (B2) (A1) (A1) (B1) (B2)
                 (A1) (A1)
 The electronic state of the initial guess is 1-A1.
 Leave Link  401 at Fri Jun 24 11:47:09 2022, MaxMem=  1048576000 cpu:               1.4 elap:               0.5
 (Enter /home/pcmt/gaussian/g16.C.01/g16/l502.exe)
 Keep R1 ints in memory in symmetry-blocked form, NReq=646035938.
 FoFCou: FMM=F IPFlag=           0 FMFlag=           0 FMFlg1=           0
         NFxFlg=           0 DoJE=F BraDBF=F KetDBF=F FulRan=T
         wScrn=  0.000000 ICntrl=       600 IOpCl=  0 I1Cent=           0 NGrid=           0
         NMat0=    1 NMatS0=  32131 NMatT0=    0 NMatD0=    1 NMtDS0=    0 NMtDT0=    0
 Petite list used in FoFCou.
 Closed shell SCF:
 Using DIIS extrapolation, IDIIS=  1040.
 NGot=  1048576000 LenX=   918564064 LenY=   918468759
 Requested convergence on RMS density matrix=1.00D-08 within 100 cycles.
 Requested convergence on MAX density matrix=1.00D-06.
 Requested convergence on             energy=1.00D-06.
 No special actions if energy rises.

 Cycle   1  Pass 1  IDiag  1:
 Defaulting to unpruned grid for atomic number  92.
 Defaulting to unpruned grid for atomic number  92.
 Defaulting to unpruned grid for atomic number  92.
 Defaulting to unpruned grid for atomic number  92.
 E= -1547.64425778161    
 DIIS: error= 3.74D-08 at cycle   1 NSaved=   1.
 NSaved= 1 IEnMin= 1 EnMin= -1547.64425778161     IErMin= 1 ErrMin= 3.74D-08
 ErrMax= 3.74D-08  0.00D+00 EMaxC= 1.00D-01 BMatC= 4.73D-13 BMatP= 4.73D-13
 IDIUse=1 WtCom= 1.00D+00 WtEn= 0.00D+00
 Coeff-Com:  0.100D+01
 Coeff:      0.100D+01
 Gap=     0.163 Goal=   None    Shift=    0.000
 RMSDP=6.43D-09 MaxDP=4.29D-07              OVMax= 7.96D-07

 SCF Done:  E(RPBE1PBE) =  -1547.64425778     A.U. after    1 cycles
            NFock=  1  Conv=0.64D-08     -V/T= 2.2702
 KE= 1.218388263285D+03 PE=-4.553457140967D+03 EE= 1.267678631224D+03
 Leave Link  502 at Fri Jun 24 11:50:16 2022, MaxMem=  1048576000 cpu:             745.6 elap:             187.2
 (Enter /home/pcmt/gaussian/g16.C.01/g16/l801.exe)
 DoSCS=F DFT=T ScalE2(SS,OS)=  1.000000  1.000000
 Range of M.O.s used for correlation:    22   253
 NBasis=   253 NAE=    41 NBE=    41 NFC=    21 NFV=     0
 NROrb=    232 NOA=    20 NOB=    20 NVA=   212 NVB=   212

 **** Warning!!: The largest alpha MO coefficient is  0.10975313D+02

 Leave Link  801 at Fri Jun 24 11:50:16 2022, MaxMem=  1048576000 cpu:               0.2 elap:               0.1
 (Enter /home/pcmt/gaussian/g16.C.01/g16/l914.exe)
 RHF ground state
 Keep R1, R2, and R3 ints in memory in symmetry-blocked form, NReq=646036278.
 FoFCou: FMM=F IPFlag=           0 FMFlag=           0 FMFlg1=           0
         NFxFlg=           0 DoJE=F BraDBF=F KetDBF=F FulRan=T
         wScrn=  0.000000 ICntrl=       600 IOpCl=  0 I1Cent=           0 NGrid=           0
         NMat0=    1 NMatS0=  32131 NMatT0=    0 NMatD0=    1 NMtDS0=    0 NMtDT0=    0
 Petite list used in FoFCou.
 MDV=  1048576000 DFT=T DoStab=F Mixed=T DoRPA=T DoScal=F NonHer=T
 Making orbital integer symmetry assigments:
 Orbital symmetries:
       Occupied  (A1) (B1) (B2) (A1) (A1) (A1) (B1) (A1) (B1) (B2)
                 (B1) (A1) (A1) (B1) (B2) (A2) (A1) (B1) (B2) (A2)
                 (A1) (A1) (B2) (A1) (B1) (A1) (A1) (B1) (B2) (B2)
                 (A2) (A1) (B1) (A1) (B2) (A1) (B1) (A1) (B1) (A2)
                 (B2)
       Virtual   (A1) (B1) (B2) (A2) (A1) (B1) (A1) (A1) (B1) (B2)
                 (A1) (B2) (B1) (A1) (A2) (B2) (B2) (A1) (A1) (B1)
                 (A2) (B1) (B2) (A1) (A1) (B2) (B1) (A1) (A2) (B1)
                 (A1) (A2) (B2) (B1) (A1) (B2) (A2) (B1) (A1) (B1)
                 (A1) (B2) (A1) (B2) (B1) (A1) (A2) (A1) (B2) (B1)
                 (A1) (B1) (A2) (B2) (A1) (B2) (A1) (B1) (A1) (A1)
                 (B1) (B1) (A1) (A2) (B2) (B2) (A1) (B1) (A1) (B1)
                 (B2) (A2) (B2) (A2) (A1) (A1) (A2) (A2) (B2) (B1)
                 (B2) (A1) (B1) (B1) (A1) (B2) (A1) (B2) (B1) (A2)
                 (B1) (A1) (A2) (B2) (A1) (B1) (A2) (B2) (A1) (B1)
                 (B1) (B2) (A1) (A2) (B1) (A1) (A1) (B2) (B2) (A1)
                 (B1) (A2) (A1) (B1) (A2) (A1) (B2) (B1) (B2) (A2)
                 (A1) (B1) (A1) (B2) (A2) (A1) (A1) (B1) (B2) (A1)
                 (B2) (B2) (B2) (A2) (B1) (A1) (A1) (B1) (A1) (B1)
                 (A2) (A2) (B2) (B1) (A1) (B2) (A1) (B2) (A2) (A1)
                 (B1) (B2) (A1) (B1) (A1) (B1) (A2) (B2) (A1) (A2)
                 (B1) (B2) (A1) (A2) (B2) (A1) (B1) (B2) (A1) (B1)
                 (A1) (B2) (A2) (A1) (B2) (A1) (A2) (B2) (B1) (A1)
                 (A1) (B1) (A2) (B2) (A1) (B1) (A2) (B2) (B1) (A1)
                 (A1) (B1) (A2) (B2) (A1) (A1) (B1) (B2) (B1) (A1)
                 (A1) (A1) (B2) (A1) (B1) (B2) (A1) (A1) (B1) (B2)
                 (A1) (A1)
    16 initial guesses have been made.
 Convergence on wavefunction:    0.000001000000000
 Davidson Disk Diagonalization:  ConvIn= 1.00D-06 SkipCon=T Conv= 1.00D-06.
 Max sub-space:  2000 roots to seek:    16 dimension of matrix:         8480
 Iteration     1 Dimension    16 NMult     0 NNew     16
 CISAX will form    16 AO SS matrices at one time.
 NMat=    16 NSing=     0 JSym2X=-1.
 Defaulting to unpruned grid for atomic number  92.
 Defaulting to unpruned grid for atomic number  92.
 Defaulting to unpruned grid for atomic number  92.
 Defaulting to unpruned grid for atomic number  92.
 New state      1 was old state      2
 New state      2 was old state      1
 New state      3 was old state      4
 New state      4 was old state      3
 Excitation Energies [eV] at current iteration:
 Root      1 :     2.739803914863746
 Root      2 :     2.750215139494916
 Root      3 :     2.843100295318940
 Root      4 :     2.850085768144736
 Root      5 :     3.235077854590484
 Root      6 :     3.239850684522310
 Root      7 :     3.254754304272946
 Root      8 :     3.305678713918576
 Root      9 :     3.345420831221098
 Root     10 :     3.391971109363883
 Root     11 :     3.488343284302267
 Root     12 :     3.492874343895049
 Root     13 :     3.587853547286951
 Root     14 :     3.608690571534309
 Root     15 :     3.772468857731261
 Root     16 :     3.800369558984542
 Iteration     2 Dimension    24 NMult    16 NNew      8
 CISAX will form     8 AO SS matrices at one time.
 NMat=     8 NSing=     0 JSym2X=-1.
 New state      1 was old state      4
 Root      1 not converged, maximum delta is    0.488843822115973
 New state      2 was old state      3
 Root      2 not converged, maximum delta is    0.428037765685175
 New state      3 was old state      2
 Root      3 not converged, maximum delta is    0.379709351945132
 New state      4 was old state      1
 Root      4 not converged, maximum delta is    0.357537667319786
 Excitation Energies [eV] at current iteration:
 Root      1 :     2.169904916365730   Change is   -0.680180851779006
 Root      2 :     2.281033814593452   Change is   -0.562066480725488
 Root      3 :     2.281648270840160   Change is   -0.468566868654757
 Root      4 :     2.290531681628546   Change is   -0.449272233235200
 Iteration     3 Dimension    32 NMult    24 NNew      8
 CISAX will form     8 AO SS matrices at one time.
 NMat=     8 NSing=     0 JSym2X=-1.
 Root      1 not converged, maximum delta is    0.020812469605267
 Root      2 not converged, maximum delta is    0.038778888589119
 Root      3 not converged, maximum delta is    0.040564458061051
 Root      4 not converged, maximum delta is    0.053139876483430
 Excitation Energies [eV] at current iteration:
 Root      1 :     2.142673244204099   Change is   -0.027231672161631
 Root      2 :     2.237348672939556   Change is   -0.043685141653896
 Root      3 :     2.243608287372869   Change is   -0.038039983467291
 Root      4 :     2.245485638878071   Change is   -0.045046042750475
 Iteration     4 Dimension    40 NMult    32 NNew      8
 CISAX will form     8 AO SS matrices at one time.
 NMat=     8 NSing=     0 JSym2X=-1.
 Root      1 not converged, maximum delta is    0.005432934546160
 Root      2 not converged, maximum delta is    0.006908704431532
 Root      3 not converged, maximum delta is    0.002838212968575
 Root      4 not converged, maximum delta is    0.003825250374701
 Excitation Energies [eV] at current iteration:
 Root      1 :     2.141804876623057   Change is   -0.000868367581042
 Root      2 :     2.236006258647457   Change is   -0.001342414292098
 Root      3 :     2.242547000970915   Change is   -0.001061286401954
 Root      4 :     2.244043140630544   Change is   -0.001442498247527
 Iteration     5 Dimension    48 NMult    40 NNew      8
 CISAX will form     8 AO SS matrices at one time.
 NMat=     8 NSing=     0 JSym2X=-1.
 Root      1 not converged, maximum delta is    0.001182982205180
 Root      2 not converged, maximum delta is    0.002053122241088
 Root      3 not converged, maximum delta is    0.001154650837050
 Root      4 not converged, maximum delta is    0.001316542806619
 Excitation Energies [eV] at current iteration:
 Root      1 :     2.141756282907723   Change is   -0.000048593715335
 Root      2 :     2.235915158705754   Change is   -0.000091099941704
 Root      3 :     2.242504441855166   Change is   -0.000042559115749
 Root      4 :     2.244000127356979   Change is   -0.000043013273565
 Iteration     6 Dimension    56 NMult    48 NNew      8
 CISAX will form     8 AO SS matrices at one time.
 NMat=     8 NSing=     0 JSym2X=-1.
 Root      1 not converged, maximum delta is    0.000607986713043
 Root      2 not converged, maximum delta is    0.000773194364876
 Root      3 not converged, maximum delta is    0.000717311299479
 Root      4 not converged, maximum delta is    0.000390899277497
 Excitation Energies [eV] at current iteration:
 Root      1 :     2.141752400669985   Change is   -0.000003882237738
 Root      2 :     2.235908152785812   Change is   -0.000007005919941
 Root      3 :     2.242498843246814   Change is   -0.000005598608351
 Root      4 :     2.243997518982131   Change is   -0.000002608374848
 Iteration     7 Dimension    64 NMult    56 NNew      8
 CISAX will form     8 AO SS matrices at one time.
 NMat=     8 NSing=     0 JSym2X=-1.
 Root      1 not converged, maximum delta is    0.000077780551715
 Root      2 not converged, maximum delta is    0.000049678704139
 Root      3 not converged, maximum delta is    0.000094721280510
 Root      4 not converged, maximum delta is    0.000095849253437
 Excitation Energies [eV] at current iteration:
 Root      1 :     2.141752240787278   Change is   -0.000000159882707
 Root      2 :     2.235907928224247   Change is   -0.000000224561565
 Root      3 :     2.242498468885000   Change is   -0.000000374361814
 Root      4 :     2.243997375643126   Change is   -0.000000143339005
 Iteration     8 Dimension    72 NMult    64 NNew      8
 CISAX will form     8 AO SS matrices at one time.
 NMat=     8 NSing=     0 JSym2X=-1.
 Root      1 not converged, maximum delta is    0.000015941135535
 Root      2 not converged, maximum delta is    0.000007478191183
 Root      3 not converged, maximum delta is    0.000019191067354
 Root      4 not converged, maximum delta is    0.000036040626933
 Excitation Energies [eV] at current iteration:
 Root      1 :     2.141752232812648   Change is   -0.000000007974629
 Root      2 :     2.235907919163400   Change is   -0.000000009060847
 Root      3 :     2.242498447817500   Change is   -0.000000021067501
 Root      4 :     2.243997358028863   Change is   -0.000000017614263
 Iteration     9 Dimension    80 NMult    72 NNew      8
 CISAX will form     8 AO SS matrices at one time.
 NMat=     8 NSing=     0 JSym2X=-1.
 Root      1 not converged, maximum delta is    0.000001976725544
 Root      2 not converged, maximum delta is    0.000001859224980
 Root      3 not converged, maximum delta is    0.000002987796938
 Root      4 not converged, maximum delta is    0.000004865515035
 Excitation Energies [eV] at current iteration:
 Root      1 :     2.141752232392620   Change is   -0.000000000420029
 Root      2 :     2.235907918851212   Change is   -0.000000000312188
 Root      3 :     2.242498447109067   Change is   -0.000000000708433
 Root      4 :     2.243997357085527   Change is   -0.000000000943336
 Iteration    10 Dimension    88 NMult    80 NNew      8
 CISAX will form     8 AO SS matrices at one time.
 NMat=     8 NSing=     0 JSym2X=-1.
 Root      1 has converged.
 Root      2 has converged.
 Root      3 has converged.
 Root      4 has converged.
 Excitation Energies [eV] at current iteration:
 Root      1 :     2.141752232370358   Change is   -0.000000000022262
 Root      2 :     2.235907918842204   Change is   -0.000000000009008
 Root      3 :     2.242498447078896   Change is   -0.000000000030170
 Root      4 :     2.243997357054608   Change is   -0.000000000030919
 Convergence achieved on expansion vectors.
 ***********************************************************************
 Excited states from <AA,BB:AA,BB> singles matrix:
 ***********************************************************************
 
 1PDM for each excited state written to RWF  633
 Ground to excited state transition densities written to RWF  633
 Ground to excited state transition electric dipole moments (Au):
       state          X           Y           Z        Dip. S.      Osc.
         1        -0.0000     -0.0000      0.0000      0.0000      0.0000
         2        -0.0000     -0.0000      0.0000      0.0000      0.0000
         3        -0.0000      0.0000      0.0000      0.0000      0.0000
         4        -0.0000      0.0000     -0.0000      0.0000      0.0000
 Ground to excited state transition velocity dipole moments (Au):
       state          X           Y           Z        Dip. S.      Osc.
         1        -0.0000      0.0000     -0.0000      0.0000      0.0000
         2         0.0000     -0.0000     -0.0000      0.0000      0.0000
         3         0.0000     -0.0000     -0.0000      0.0000      0.0000
         4         0.0000      0.0000      0.0000      0.0000      0.0000
 Ground to excited state transition magnetic dipole moments (Au):
       state          X           Y           Z
         1        -0.0000      0.0000      0.0000
         2         0.0000      0.0000     -0.0000
         3        -0.0000      0.0000      0.0000
         4         0.0000      0.0000     -0.0000
 Ground to excited state transition velocity quadrupole moments (Au):
       state          XX          YY          ZZ          XY          XZ          YZ
         1         0.0000      0.0000     -0.0000      0.0000     -0.0000      0.0000
         2        -0.0000     -0.0000     -0.0000      0.0000      0.0000     -0.0000
         3        -0.0000     -0.0000     -0.0000      0.0000     -0.0000      0.0000
         4        -0.0000      0.0000     -0.0000      0.0000      0.0000     -0.0000
 <0|del|b> * <b|rxdel|0> + <0|del|b> * <b|delr+rdel|0>
 Rotatory Strengths (R) in cgs (10**-40 erg-esu-cm/Gauss)
       state          XX          YY          ZZ    R(velocity)    E-M Angle
         1        -0.0000     -0.0000      0.0000     -0.0000       90.00
         2         0.0000      0.0000     -0.0000      0.0000       90.00
         3        -0.0000     -0.0000     -0.0000     -0.0000       90.00
         4         0.0000     -0.0000      0.0000      0.0000       90.00
 1/2[<0|r|b>*<b|rxdel|0> + (<0|rxdel|b>*<b|r|0>)*]
 Rotatory Strengths (R) in cgs (10**-40 erg-esu-cm/Gauss)
       state          XX          YY          ZZ     R(length)
         1        -0.0000      0.0000     -0.0000     -0.0000
         2         0.0000      0.0000      0.0000      0.0000
         3        -0.0000     -0.0000     -0.0000     -0.0000
         4         0.0000     -0.0000     -0.0000     -0.0000
  1/2[<0|del|b>*<b|r|0> + (<0|r|b>*<b|del|0>)*] (Au)
       state          X           Y           Z        Dip. S.   Osc.(frdel)
         1         0.0000     -0.0000     -0.0000      0.0000      0.0000
         2        -0.0000      0.0000     -0.0000      0.0000      0.0000
         3        -0.0000     -0.0000     -0.0000      0.0000      0.0000
         4        -0.0000      0.0000     -0.0000      0.0000      0.0000

 Excitation energies and oscillator strengths:
 
 Excited State   1:      Triplet-A1     2.1418 eV  578.89 nm  f=0.0000  <S**2>=2.000
      35 -> 44        -0.43578
      41 -> 44         0.55789
 
 Excited State   2:      Triplet-B1     2.2359 eV  554.51 nm  f=0.0000  <S**2>=2.000
      35 -> 45        -0.40371
      41 -> 45         0.58055
 This state for optimization and/or second-order correction.
 Total Energy, E(TD-HF/TD-DFT) =  -1547.56208968    
 Copying the excited state density for this state as the 1-particle RhoCI density.
 
 Excited State   3:      Triplet-B2     2.2425 eV  552.88 nm  f=0.0000  <S**2>=2.000
      35 -> 42        -0.38005
      41 -> 42         0.59231
 
 Excited State   4:      Triplet-A2     2.2440 eV  552.51 nm  f=0.0000  <S**2>=2.000
      35 -> 43        -0.37252
      41 -> 43         0.59729
 SavETr:  write IOETrn=   770 NScale= 10 NData=  16 NLR=1 NState=    4 LETran=      82.
 The selected state is a triplet.
 CISGrd: IGrad=3 NXY=2 DFT=T
 CISAX will form     1 AO SS matrices at one time.
 NMat=     1 NSing=     0 JSym2X=-1.
 Leave Link  914 at Fri Jun 24 11:55:57 2022, MaxMem=  1048576000 cpu:            1357.5 elap:             340.6
 (Enter /home/pcmt/gaussian/g16.C.01/g16/l1002.exe)
 Minotr:  Closed shell wavefunction.
          Computing CIS/TDA/TD derivatives.
          Using Z-Vector for PSCF gradient.
          Skipping F1 and S1 gradient terms here.
          IDoAtm=11111
          Frozen-core window.
          Direct CPHF calculation.
          Differentiating once with respect to electric field.
                with respect to dipole field.
          Differentiating once with respect to nuclear coordinates.
          Requested convergence is 1.0D-10 RMS, and 1.0D-09 maximum.
          NewPWx=F KeepS1=T KeepF1=T KeepIn=T MapXYZ=F SortEE=F KeepMc=T.
 Keep R1 ints in memory in symmetry-blocked form, NReq=646037315.
 FoFCou: FMM=F IPFlag=           0 FMFlag=           0 FMFlg1=           0
         NFxFlg=           0 DoJE=F BraDBF=F KetDBF=F FulRan=T
         wScrn=  0.000000 ICntrl=       600 IOpCl=  0 I1Cent=           0 NGrid=           0
         NMat0=    1 NMatS0=  32131 NMatT0=    0 NMatD0=    1 NMtDS0=    0 NMtDT0=    0
 Petite list used in FoFCou.
 Two-electron integral symmetry used by symmetrizing perturbed Fock matrices.
          MDV=    1048576000 using IRadAn=       5.
          Solving linear equations separately, MaxMat=       0.
          There are     1 degrees of freedom in the 1st order CPHF.  IDoFFX=0 NUNeed=     1.
 Defaulting to unpruned grid for atomic number  92.
 Defaulting to unpruned grid for atomic number  92.
 Defaulting to unpruned grid for atomic number  92.
 Defaulting to unpruned grid for atomic number  92.
 LinEq1:  Iter=  0 NonCon=     1 RMS=2.55D-02 Max=9.12D-01 NDo=     1
 AX will form     1 AO Fock derivatives at one time.
 LinEq1:  Iter=  1 NonCon=     1 RMS=1.20D-02 Max=4.89D-01 NDo=     1
 LinEq1:  Iter=  2 NonCon=     1 RMS=1.07D-02 Max=4.64D-01 NDo=     1
 LinEq1:  Iter=  3 NonCon=     1 RMS=3.51D-03 Max=9.11D-02 NDo=     1
 LinEq1:  Iter=  4 NonCon=     1 RMS=1.48D-03 Max=5.01D-02 NDo=     1
 LinEq1:  Iter=  5 NonCon=     1 RMS=5.94D-04 Max=1.55D-02 NDo=     1
 LinEq1:  Iter=  6 NonCon=     1 RMS=3.13D-04 Max=6.64D-03 NDo=     1
 LinEq1:  Iter=  7 NonCon=     1 RMS=1.06D-04 Max=2.37D-03 NDo=     1
 LinEq1:  Iter=  8 NonCon=     1 RMS=3.74D-05 Max=1.06D-03 NDo=     1
 LinEq1:  Iter=  9 NonCon=     1 RMS=1.23D-05 Max=3.44D-04 NDo=     1
 LinEq1:  Iter= 10 NonCon=     1 RMS=5.18D-06 Max=1.59D-04 NDo=     1
 LinEq1:  Iter= 11 NonCon=     1 RMS=1.43D-06 Max=4.44D-05 NDo=     1
 LinEq1:  Iter= 12 NonCon=     1 RMS=3.07D-07 Max=7.48D-06 NDo=     1
 LinEq1:  Iter= 13 NonCon=     1 RMS=1.46D-07 Max=4.12D-06 NDo=     1
 LinEq1:  Iter= 14 NonCon=     1 RMS=2.99D-08 Max=8.73D-07 NDo=     1
 LinEq1:  Iter= 15 NonCon=     1 RMS=7.57D-09 Max=1.88D-07 NDo=     1
 LinEq1:  Iter= 16 NonCon=     1 RMS=1.82D-09 Max=4.77D-08 NDo=     1
 LinEq1:  Iter= 17 NonCon=     1 RMS=4.75D-10 Max=1.40D-08 NDo=     1
 LinEq1:  Iter= 18 NonCon=     1 RMS=7.24D-11 Max=1.34D-09 NDo=     1
 LinEq1:  Iter= 19 NonCon=     0 RMS=2.12D-11 Max=5.93D-10 NDo=     1
 Linear equations converged to 1.000D-10 1.000D-09 after    19 iterations.
          There are     1 degrees of freedom in the 1st order CPHF.  IDoFFX=0 NUNeed=     1.
 End of Minotr F.D. properties file   721 does not exist.
 End of Minotr F.D. properties file   722 does not exist.
 End of Minotr F.D. properties file   788 does not exist.
 Leave Link 1002 at Fri Jun 24 11:59:39 2022, MaxMem=  1048576000 cpu:             883.3 elap:             221.9
 (Enter /home/pcmt/gaussian/g16.C.01/g16/l1101.exe)
 Using compressed Sx but separate Hx and Fx, NAtomX=     5.
 Will process      6 centers per pass.
   4 Symmetry operations used in ECPInt.
 ECPInt:  NShTT=    3160 NPrTT=   10748 LenC2=    3029 LenP2D=    7887.
 LDataN:  DoStor=T MaxTD1=10 Len=  848
 Leave Link 1101 at Fri Jun 24 11:59:48 2022, MaxMem=  1048576000 cpu:              15.0 elap:               9.4
 (Enter /home/pcmt/gaussian/g16.C.01/g16/l1102.exe)
 Use density number 6.
 Symmetrizing basis deriv contribution to polar:
 IMax=3 JMax=2 DiffMx= 0.00D+00
 Leave Link 1102 at Fri Jun 24 11:59:49 2022, MaxMem=  1048576000 cpu:               0.3 elap:               0.3
 (Enter /home/pcmt/gaussian/g16.C.01/g16/l1110.exe)
 Forming Gx(P) for the SCF density, NAtomX=     5.
 Integral derivatives from FoFJK, PRISM(SPDF).
 Do as many integral derivatives as possible in FoFJK.
 G2DrvN: MDV=    1048575349.
 G2DrvN: will do     6 centers at a time, making    1 passes.
 Calling FoFCou, ICntrl=  3107 FMM=F I1Cent=   0 AccDes= 0.00D+00.
 FoFJK:  IHMeth= 1 ICntrl=    3107 DoSepK=F KAlg= 0 I1Cent=           0 FoldK=F
 IRaf=         0 NMat=       1 IRICut=       1 DoRegI=T DoRafI=F ISym2E= 1 IDoP0=0 IntGTp=1.
 FoFCou: FMM=F IPFlag=           0 FMFlag=      100000 FMFlg1=           0
         NFxFlg=           0 DoJE=F BraDBF=F KetDBF=F FulRan=T
         wScrn=  0.000000 ICntrl=      3107 IOpCl=  0 I1Cent=           0 NGrid=           0
         NMat0=    1 NMatS0=      1 NMatT0=    0 NMatD0=    1 NMtDS0=    0 NMtDT0=    0
 Petite list used in FoFCou.
 Defaulting to unpruned grid for atomic number  92.
 Defaulting to unpruned grid for atomic number  92.
 Defaulting to unpruned grid for atomic number  92.
 Defaulting to unpruned grid for atomic number  92.
 Forming Gx(P) for generalized density number  6 NAtomX=     5.
 Integral derivatives from FoFJK, PRISM(SPDF).
 Do as many integral derivatives as possible in FoFJK.
 G2DrvN: MDV=    1048575349.
 G2DrvN: will do     6 centers at a time, making    1 passes.
 Calling FoFCou, ICntrl=  3107 FMM=F I1Cent=   0 AccDes= 0.00D+00.
 Forming Gx(T) for CIS/TDA/TD state  2 NAtomX=     5.
 Integral derivatives from FoFJK, PRISM(SPDF).
 Do as many integral derivatives as possible in FoFJK.
 G2DrvN: MDV=    1048575349.
 G2DrvN: will do     6 centers at a time, making    1 passes.
 Calling FoFCou, ICntrl=  3107 FMM=F I1Cent=   0 AccDes= 0.00D+00.
 End of G2Drv F.D. properties file   721 does not exist.
 End of G2Drv F.D. properties file   722 does not exist.
 End of G2Drv F.D. properties file   788 does not exist.
 Leave Link 1110 at Fri Jun 24 12:04:13 2022, MaxMem=  1048576000 cpu:            1051.6 elap:             264.1
 (Enter /home/pcmt/gaussian/g16.C.01/g16/l1002.exe)
 Minotr:  Closed shell wavefunction.
          IDoAtm=11111
          Frozen-core window.
          Direct CPHF calculation.
          Differentiating once with respect to electric field.
                with respect to dipole field.
          Differentiating once with respect to nuclear coordinates.
          Requested convergence is 1.0D-08 RMS, and 1.0D-07 maximum.
          Secondary convergence is 1.0D-12 RMS, and 1.0D-12 maximum.
          NewPWx=T KeepS1=T KeepF1=T KeepIn=T MapXYZ=F SortEE=F KeepMc=T.
 Defaulting to unpruned grid for atomic number  92.
         1512 words used for storage of precomputed grid.
 Keep R1 ints in memory in symmetry-blocked form, NReq=646038827.
 FoFCou: FMM=F IPFlag=           0 FMFlag=           0 FMFlg1=           0
         NFxFlg=           0 DoJE=F BraDBF=F KetDBF=F FulRan=T
         wScrn=  0.000000 ICntrl=       600 IOpCl=  0 I1Cent=           0 NGrid=           0
         NMat0=    1 NMatS0=  32131 NMatT0=    0 NMatD0=    1 NMtDS0=    0 NMtDT0=    0
 Petite list used in FoFCou.
          MDV=    1048576000 using IRadAn=       1.
          Solving linear equations simultaneously, MaxMat=       0.
 Defaulting to unpruned grid for atomic number  92.
 Defaulting to unpruned grid for atomic number  92.
 Defaulting to unpruned grid for atomic number  92.
 Defaulting to unpruned grid for atomic number  92.
          There are    18 degrees of freedom in the 1st order CPHF.  IDoFFX=6 NUNeed=    18.
     15 vectors produced by pass  0 Test12= 4.83D-14 5.56D-09 XBig12= 1.01D+02 4.85D+00.
 AX will form    15 AO Fock derivatives at one time.
     15 vectors produced by pass  1 Test12= 4.83D-14 5.56D-09 XBig12= 4.23D+01 2.05D+00.
     15 vectors produced by pass  2 Test12= 4.83D-14 5.56D-09 XBig12= 7.00D+00 5.87D-01.
     15 vectors produced by pass  3 Test12= 4.83D-14 5.56D-09 XBig12= 3.77D-01 1.91D-01.
     15 vectors produced by pass  4 Test12= 4.83D-14 5.56D-09 XBig12= 1.17D-02 4.21D-02.
     15 vectors produced by pass  5 Test12= 4.83D-14 5.56D-09 XBig12= 6.87D-04 9.16D-03.
     15 vectors produced by pass  6 Test12= 4.83D-14 5.56D-09 XBig12= 1.31D-05 6.77D-04.
     15 vectors produced by pass  7 Test12= 4.83D-14 5.56D-09 XBig12= 1.68D-07 1.37D-04.
     13 vectors produced by pass  8 Test12= 4.83D-14 5.56D-09 XBig12= 2.29D-09 1.25D-05.
      7 vectors produced by pass  9 Test12= 4.83D-14 5.56D-09 XBig12= 2.58D-11 1.07D-06.
      4 vectors produced by pass 10 Test12= 4.83D-14 5.56D-09 XBig12= 4.28D-13 1.68D-07.
      2 vectors produced by pass 11 Test12= 4.83D-14 5.56D-09 XBig12= 4.42D-15 1.75D-08.
 InvSVY:  IOpt=1 It=  1 EMax= 9.99D-16
 Solved reduced A of dimension   146 with    15 vectors.
 FullF1:  Do perturbations      1 to      18.
 Isotropic polarizability for W=    0.000000       72.16 Bohr**3.
 Saving first derivative matrices.
 End of Minotr F.D. properties file   721 does not exist.
 End of Minotr F.D. properties file   722 does not exist.
 End of Minotr F.D. properties file   788 does not exist.
 Leave Link 1002 at Fri Jun 24 12:09:13 2022, MaxMem=  1048576000 cpu:            1198.4 elap:             300.6
 (Enter /home/pcmt/gaussian/g16.C.01/g16/l1014.exe)
 Defaulting to unpruned grid for atomic number  92.
 This link is doing    18 degrees of freedom
 Form MO integral derivatives with frozen-active canonical formalism.
 CISSec: MDV=    1048573280
 Doing TD-HF/TD-DFT second derivatives, IDoFFX=6 IOneXC=4 IRadAn=         1.
 Frozen orbitals handled with amplitudes over full window.
 Frozen-core window:  NFC=  21 NFV=   0.
 Symmetry is being used.
 Keep R1, R2, and R3 ints in memory in symmetry-blocked form, NReq=646101548.
 FoFCou: FMM=F IPFlag=           0 FMFlag=           0 FMFlg1=           0
         NFxFlg=           0 DoJE=F BraDBF=F KetDBF=F FulRan=T
         wScrn=  0.000000 ICntrl=       600 IOpCl=  0 I1Cent=           0 NGrid=           0
         NMat0=    1 NMatS0=  32131 NMatT0=    0 NMatD0=    1 NMtDS0=    0 NMtDT0=    0
 Petite list used in FoFCou.
 The selected state is a triplet.
 CISGrX: IGrad=3 NXY=2 DFT=T
 CISAX will form    18 AO SS matrices at one time.
 Defaulting to unpruned grid for atomic number  92.
 Defaulting to unpruned grid for atomic number  92.
 Defaulting to unpruned grid for atomic number  92.
 Defaulting to unpruned grid for atomic number  92.
 NMat=    18 NSing=     0 JSym2X= 2.
     15 vectors produced by pass  0 Test12= 4.71D-14 5.56D-09 XBig12= 6.39D+01 7.90D+00.
 AX will form    15 AO Fock derivatives at one time.
     15 vectors produced by pass  1 Test12= 4.71D-14 5.56D-09 XBig12= 1.62D+01 3.05D+00.
     15 vectors produced by pass  2 Test12= 4.71D-14 5.56D-09 XBig12= 9.20D-01 4.35D-01.
     15 vectors produced by pass  3 Test12= 4.71D-14 5.56D-09 XBig12= 1.71D-02 6.83D-02.
     15 vectors produced by pass  4 Test12= 4.71D-14 5.56D-09 XBig12= 2.44D-04 4.17D-03.
     15 vectors produced by pass  5 Test12= 4.71D-14 5.56D-09 XBig12= 4.31D-06 7.88D-04.
     15 vectors produced by pass  6 Test12= 4.71D-14 5.56D-09 XBig12= 9.31D-08 9.19D-05.
     15 vectors produced by pass  7 Test12= 4.71D-14 5.56D-09 XBig12= 1.52D-09 1.29D-05.
      7 vectors produced by pass  8 Test12= 4.71D-14 5.56D-09 XBig12= 1.43D-11 1.39D-06.
      3 vectors produced by pass  9 Test12= 4.71D-14 5.56D-09 XBig12= 1.80D-13 1.32D-07.
      1 vectors produced by pass 10 Test12= 4.71D-14 5.56D-09 XBig12= 1.44D-15 9.13D-09.
 InvSVY:  IOpt=1 It=  1 EMax= 2.62D-15
 Solved reduced A of dimension   131 with    15 vectors.
 Tx.T = -1.77D-05 for pert.     3
 Tx.T = -1.05D-06 for pert.    11
 Tx.T =  1.05D-06 for pert.     8
 Tx.T =  4.75D-07 for pert.     6
 Tx.T = -3.36D-07 for pert.    16
 Tx.T =  3.36D-07 for pert.    13
 Tx.T = -2.88D-07 for pert.    15
 Tx.T = -2.88D-07 for pert.    18
 Tx.T =  5.05D-08 for pert.    12
 Tx.T =  5.05D-08 for pert.     9
 SavDET:  read IOETrn=   770 NScale= 10 NData=  16 NLR=1 NState=    4 NDeriv=    0 LETran=      82.
 SavDET: write IOETrn=   770 NScale= 10 NData=  16 NLR=1 NState=    4 NDeriv=   18 LETran=     370.
 TDDxLx will form    18 C1x/S1x matrices at one time.
 Interchange theorem applied.
 R6Disp: Adding Grimme-D3(BJ) dispersion energy 1st derivatives to the gradient.
 FoFJK:  IHMeth= 1 ICntrl=    5100 DoSepK=F KAlg= 0 I1Cent=           0 FoldK=F
 IRaf=         0 NMat=       1 IRICut=       1 DoRegI=T DoRafI=F ISym2E= 0 IDoP0=0 IntGTp=1.
 Leave Link 1014 at Fri Jun 24 12:17:35 2022, MaxMem=  1048576000 cpu:            2001.5 elap:             501.9
 (Enter /home/pcmt/gaussian/g16.C.01/g16/l601.exe)
 Copying SCF densities to generalized density rwf, IOpCl= 0 IROHF=0.

 **********************************************************************

            Population analysis using the SCF Density.

 **********************************************************************

 Orbital symmetries:
       Occupied  (A1) (B1) (B2) (A1) (A1) (A1) (B1) (A1) (B1) (B2)
                 (B1) (A1) (A1) (B1) (B2) (A2) (A1) (B1) (B2) (A2)
                 (A1) (A1) (B2) (A1) (B1) (A1) (A1) (B1) (B2) (B2)
                 (A2) (A1) (B1) (A1) (B2) (A1) (B1) (A1) (B1) (A2)
                 (B2)
       Virtual   (A1) (B1) (B2) (A2) (A1) (B1) (A1) (A1) (B1) (B2)
                 (A1) (B2) (B1) (A1) (A2) (B2) (B2) (A1) (A1) (B1)
                 (A2) (B1) (B2) (A1) (A1) (B2) (B1) (A1) (A2) (B1)
                 (A1) (A2) (B2) (B1) (A1) (B2) (A2) (B1) (A1) (B1)
                 (A1) (B2) (A1) (B2) (B1) (A1) (A2) (A1) (B2) (B1)
                 (A1) (B1) (A2) (B2) (A1) (B2) (A1) (B1) (A1) (A1)
                 (B1) (B1) (A1) (A2) (B2) (B2) (A1) (B1) (A1) (B1)
                 (B2) (A2) (B2) (A2) (A1) (A1) (A2) (A2) (B2) (B1)
                 (B2) (A1) (B1) (B1) (A1) (B2) (A1) (B2) (B1) (A2)
                 (B1) (A1) (A2) (B2) (A1) (B1) (A2) (B2) (A1) (B1)
                 (B1) (B2) (A1) (A2) (B1) (A1) (A1) (B2) (B2) (A1)
                 (B1) (A2) (A1) (B1) (A2) (A1) (B2) (B1) (B2) (A2)
                 (A1) (B1) (A1) (B2) (A2) (A1) (A1) (B1) (B2) (A1)
                 (B2) (B2) (B2) (A2) (B1) (A1) (A1) (B1) (A1) (B1)
                 (A2) (A2) (B2) (B1) (A1) (B2) (A1) (B2) (A2) (A1)
                 (B1) (B2) (A1) (B1) (A1) (B1) (A2) (B2) (A1) (A2)
                 (B1) (B2) (A1) (A2) (B2) (A1) (B1) (B2) (A1) (B1)
                 (A1) (B2) (A2) (A1) (B2) (A1) (A2) (B2) (B1) (A1)
                 (A1) (B1) (A2) (B2) (A1) (B1) (A2) (B2) (B1) (A1)
                 (A1) (B1) (A2) (B2) (A1) (A1) (B1) (B2) (B1) (A1)
                 (A1) (A1) (B2) (A1) (B1) (B2) (A1) (A1) (B1) (B2)
                 (A1) (A1)
 The electronic state is 1-A1.
 Alpha  occ. eigenvalues -- -101.68618-101.68618 -19.27753 -19.27753 -12.17628
 Alpha  occ. eigenvalues --   -9.51299  -9.51298  -7.61379  -7.61295  -7.57956
 Alpha  occ. eigenvalues --   -7.24245  -7.24244  -7.24172  -7.24172  -7.24029
 Alpha  occ. eigenvalues --   -7.24029  -3.97741  -3.97698  -3.96288  -3.96253
 Alpha  occ. eigenvalues --   -3.95536  -1.98427  -1.25109  -1.05026  -1.02935
 Alpha  occ. eigenvalues --   -0.99185  -0.80754  -0.80004  -0.76852  -0.45802
 Alpha  occ. eigenvalues --   -0.45678  -0.44813  -0.43376  -0.43137  -0.40068
 Alpha  occ. eigenvalues --   -0.36966  -0.36035  -0.34680  -0.33597  -0.33365
 Alpha  occ. eigenvalues --   -0.31930
 Alpha virt. eigenvalues --   -0.15665  -0.15620  -0.15098  -0.14942  -0.11025
 Alpha virt. eigenvalues --   -0.09986  -0.05577  -0.02364  -0.01788   0.02349
[...]
      9  0.132927D-02  0.132927D-02 -0.741514D-02 -0.725116D-02  0.300035D-02
     10 -0.573168D-02 -0.573167D-02 -0.833656D-03  0.431015D-03  0.217342D-01
     11  0.102174D-01  0.102174D-01  0.735329D-03  0.197588D-02  0.255859D-02
     12 -0.668819D-02 -0.165215D-02 -0.103826D-02 -0.602447D-03  0.148174D-01
     13  0.165215D-02  0.668819D-02  0.103447D-02  0.606243D-03 -0.564748D-02
                6             7             8             9            10 
      6  0.316306D-01
      7 -0.121126D-01  0.130376D-01
      8  0.569237D-02  0.262140D-02  0.316305D-01
      9 -0.242050D-02  0.300034D-02 -0.242048D-02  0.457385D-01
     10 -0.949129D-02  0.217341D-01 -0.949118D-02  0.600068D-02  0.434683D-01
     11 -0.357377D-01  0.255853D-02 -0.357376D-01 -0.606994D-02  0.511713D-02
     12  0.124056D-01  0.564748D-02 -0.111855D-01  0.703192D-02  0.204649D-01
     13  0.111855D-01 -0.148174D-01 -0.124057D-01 -0.703192D-02 -0.204649D-01
               11            12            13 
     11  0.746972D-01
     12 -0.911159D-02  0.201572D-01
     13  0.911162D-02 -0.314417D-02  0.201572D-01
 Leave Link  716 at Fri Jun 24 12:22:29 2022, MaxMem=  1048576000 cpu:               0.2 elap:               0.2
 (Enter /home/pcmt/gaussian/g16.C.01/g16/l103.exe)

 GradGradGradGradGradGradGradGradGradGradGradGradGradGradGradGradGradGrad
 Berny optimization.
 Red2BG is reusing G-inverse.
 Internal  Forces:  Max     0.000000041 RMS     0.000000022
 Search for a local minimum.
 Step number   1 out of a maximum of    2
 All quantities printed in internal units (Hartrees-Bohrs-Radians)
 Second derivative matrix not updated -- analytic derivatives used.
 The second derivative matrix:
                          R1        R2        R3        R4        A1
           R1           0.42273
           R2           0.04827   0.42273
           R3           0.01610   0.01610   0.11175
           R4           0.01610   0.01610   0.00374   0.11175
           A1          -0.00429  -0.00144  -0.00042   0.00022   0.01304
           A2          -0.00742  -0.00086   0.00050  -0.00031   0.00262
           A3          -0.00144  -0.00429  -0.00041   0.00021   0.00870
           A4          -0.00086  -0.00742   0.00048  -0.00030  -0.01211
           A5           0.00133   0.00133  -0.00742  -0.00725   0.00300
           A6          -0.00573  -0.00573  -0.00083   0.00043   0.02173
           A7           0.01022   0.01022   0.00074   0.00198   0.00256
           D1          -0.00669  -0.00165  -0.00104  -0.00060   0.01482
           D2           0.00165   0.00669   0.00103   0.00061  -0.00565
                          A2        A3        A4        A5        A6
           A2           0.03163
           A3          -0.01211   0.01304
           A4           0.00569   0.00262   0.03163
           A5          -0.00242   0.00300  -0.00242   0.04574
           A6          -0.00949   0.02173  -0.00949   0.00600   0.04347
           A7          -0.03574   0.00256  -0.03574  -0.00607   0.00512
           D1           0.01241   0.00565  -0.01119   0.00703   0.02046
           D2           0.01119  -0.01482  -0.01241  -0.00703  -0.02046
                          A7        D1        D2
           A7           0.07470
           D1          -0.00911   0.02016
           D2           0.00911  -0.00314   0.02016
 ITU=  0
     Eigenvalues ---   -0.00445   0.04137   0.05150   0.08803   0.10769
     Eigenvalues ---    0.11409   0.11450   0.37469   0.47509
 Eigenvalue     1 is  -4.45D-03 should be greater than     0.000000 Eigenvector:
                          A2        A4        A1        A3        D1
   1                   -0.45734   0.45734   0.43707  -0.43707   0.31592
                          D2        R1        R2        R3        R4
   1                    0.31592  -0.00044   0.00044   0.00009  -0.00009
 Angle between quadratic step and forces=  90.00 degrees.
 Linear search not attempted -- first point.
 Iteration  1 RMS(Cart)=  0.00000031 RMS(Int)=  0.00000000
 ITry= 1 IFail=0 DXMaxC= 5.65D-07 DCOld= 1.00D+10 DXMaxT= 3.00D-01 DXLimC= 3.00D+00 Rises=F
 Variable       Old X    -DE/DX   Delta X   Delta X   Delta X     New X
                                 (Linear)    (Quad)   (Total)
    R1        3.32041   0.00000   0.00000   0.00000   0.00000   3.32041
    R2        3.32041   0.00000   0.00000   0.00000   0.00000   3.32041
    R3        4.77828  -0.00000   0.00000  -0.00000  -0.00000   4.77828
    R4        4.77828  -0.00000   0.00000  -0.00000  -0.00000   4.77828
    A1        1.64220  -0.00000   0.00000  -0.00000  -0.00000   1.64220
    A2        1.64220  -0.00000   0.00000  -0.00000  -0.00000   1.64220
    A3        1.64220  -0.00000   0.00000  -0.00000  -0.00000   1.64220
    A4        1.64220  -0.00000   0.00000  -0.00000  -0.00000   1.64220
    A5        1.86643   0.00000   0.00000   0.00000   0.00000   1.86643
    A6        3.28440  -0.00000   0.00000  -0.00000  -0.00000   3.28440
    A7        2.94818   0.00000   0.00000   0.00000   0.00000   2.94818
    D1        1.66750  -0.00000   0.00000  -0.00000  -0.00000   1.66750
    D2       -1.66750   0.00000   0.00000   0.00000   0.00000  -1.66750
         Item               Value     Threshold  Converged?
 Maximum Force            0.000000     0.000450     YES
 RMS     Force            0.000000     0.000300     YES
 Maximum Displacement     0.000001     0.001800     YES
 RMS     Displacement     0.000000     0.001200     YES
 Predicted change in Energy=-1.794899D-14
 Optimization completed.
    -- Stationary point found.
                           ----------------------------
                           !   Optimized Parameters   !
                           ! (Angstroms and Degrees)  !
 --------------------------                            --------------------------
 ! Name  Definition              Value          Derivative Info.                !
 --------------------------------------------------------------------------------
 ! R1    R(1,2)                  1.7571         -DE/DX =    0.0                 !
 ! R2    R(1,3)                  1.7571         -DE/DX =    0.0                 !
 ! R3    R(1,4)                  2.5286         -DE/DX =    0.0                 !
 ! R4    R(1,5)                  2.5286         -DE/DX =    0.0                 !
 ! A1    A(2,1,4)               94.0912         -DE/DX =    0.0                 !
 ! A2    A(2,1,5)               94.0912         -DE/DX =    0.0                 !
 ! A3    A(3,1,4)               94.0912         -DE/DX =    0.0                 !
 ! A4    A(3,1,5)               94.0912         -DE/DX =    0.0                 !
 ! A5    A(4,1,5)              106.9385         -DE/DX =    0.0                 !
 ! A6    L(2,1,3,4,-1)         188.1825         -DE/DX =    0.0                 !
 ! A7    L(2,1,3,4,-2)         168.9184         -DE/DX =    0.0                 !
 ! D1    D(2,1,5,4)             95.5408         -DE/DX =    0.0                 !
 ! D2    D(3,1,5,4)            -95.5408         -DE/DX =    0.0                 !
 --------------------------------------------------------------------------------
 GradGradGradGradGradGradGradGradGradGradGradGradGradGradGradGradGradGrad

 Leave Link  103 at Fri Jun 24 12:22:29 2022, MaxMem=  1048576000 cpu:               0.1 elap:               0.2
 (Enter /home/pcmt/gaussian/g16.C.01/g16/l9999.exe)
 -------------------------------------------------------------------
 Center     Atomic                Nonadiabatic Coup. (Bohr^-1)
 Number     Number              X              Y              Z
 -------------------------------------------------------------------
      1       92          -0.000000000   -0.000000000   -0.424302435
      2        8           0.000000000   -0.000000000    0.144673336
      3        8           0.000000000    0.000000000    0.144673336
      4       17           0.000000000    0.021211763    0.067477882
      5       17           0.000000000   -0.021211763    0.067477882
 -------------------------------------------------------------------
 Cartesian Nonad. Coup.:  Max     0.424302435 RMS     0.124338171
 Electronic transition elements 
                 1             2             3             4 
      1  -0.154757D+04 -0.154756D+04 -0.154756D+04 -0.154756D+04
      2   0.000000D+00  0.000000D+00  0.000000D+00  0.000000D+00
      3   0.000000D+00  0.000000D+00  0.000000D+00  0.000000D+00
      4   0.000000D+00  0.000000D+00  0.000000D+00  0.000000D+00
      5   0.000000D+00  0.000000D+00  0.000000D+00  0.000000D+00
      6   0.000000D+00  0.000000D+00  0.000000D+00  0.000000D+00
      7   0.000000D+00  0.000000D+00  0.000000D+00  0.000000D+00
      8   0.000000D+00  0.000000D+00  0.000000D+00  0.000000D+00
      9   0.000000D+00  0.000000D+00  0.000000D+00  0.000000D+00
     10   0.000000D+00  0.000000D+00  0.000000D+00  0.000000D+00
     11   0.000000D+00  0.000000D+00  0.000000D+00  0.000000D+00
     12   0.000000D+00  0.000000D+00  0.000000D+00  0.000000D+00
     13   0.000000D+00  0.000000D+00  0.000000D+00  0.000000D+00
     14   0.000000D+00  0.000000D+00  0.000000D+00  0.000000D+00
     15   0.000000D+00  0.000000D+00  0.000000D+00  0.000000D+00
     16   0.000000D+00  0.000000D+00  0.000000D+00  0.000000D+00
 Electronic Transition Derivatives 
                 1             2             3             4             5 
      1   0.000000D+00  0.000000D+00  0.000000D+00  0.000000D+00  0.000000D+00
      2   0.000000D+00  0.000000D+00  0.000000D+00  0.000000D+00  0.000000D+00
      3   0.000000D+00  0.000000D+00  0.000000D+00  0.000000D+00  0.000000D+00
      4   0.000000D+00  0.000000D+00  0.000000D+00  0.000000D+00  0.000000D+00
      5   0.000000D+00  0.000000D+00  0.000000D+00  0.000000D+00  0.000000D+00
      6   0.000000D+00  0.000000D+00  0.000000D+00  0.000000D+00  0.000000D+00
      7   0.000000D+00  0.000000D+00  0.000000D+00  0.000000D+00  0.000000D+00
      8   0.000000D+00  0.000000D+00  0.000000D+00  0.000000D+00  0.000000D+00
      9   0.000000D+00  0.000000D+00  0.000000D+00  0.000000D+00  0.000000D+00
     10   0.000000D+00  0.000000D+00  0.000000D+00  0.000000D+00  0.000000D+00
     11   0.000000D+00  0.000000D+00  0.000000D+00  0.000000D+00  0.000000D+00
     12   0.000000D+00  0.000000D+00  0.000000D+00  0.000000D+00  0.000000D+00
     13   0.000000D+00  0.000000D+00  0.000000D+00  0.000000D+00  0.000000D+00
     14   0.000000D+00  0.000000D+00  0.000000D+00  0.000000D+00  0.000000D+00
     15   0.000000D+00  0.000000D+00  0.000000D+00  0.000000D+00  0.000000D+00
     16   0.000000D+00  0.000000D+00  0.000000D+00  0.000000D+00  0.000000D+00
                 6             7             8             9            10 
      1   0.000000D+00  0.000000D+00  0.000000D+00  0.000000D+00  0.000000D+00
      2   0.000000D+00  0.000000D+00  0.000000D+00  0.000000D+00  0.000000D+00
      3   0.000000D+00  0.000000D+00  0.000000D+00  0.000000D+00  0.000000D+00
      4   0.000000D+00  0.000000D+00  0.000000D+00  0.000000D+00  0.000000D+00
      5   0.000000D+00  0.000000D+00  0.000000D+00  0.000000D+00  0.000000D+00
      6   0.000000D+00  0.000000D+00  0.000000D+00  0.000000D+00  0.000000D+00
      7   0.000000D+00  0.000000D+00  0.000000D+00  0.000000D+00  0.000000D+00
      8   0.000000D+00  0.000000D+00  0.000000D+00  0.000000D+00  0.000000D+00
      9   0.000000D+00  0.000000D+00  0.000000D+00  0.000000D+00  0.000000D+00
     10   0.000000D+00  0.000000D+00  0.000000D+00  0.000000D+00  0.000000D+00
     11   0.000000D+00  0.000000D+00  0.000000D+00  0.000000D+00  0.000000D+00
     12   0.000000D+00  0.000000D+00  0.000000D+00  0.000000D+00  0.000000D+00
     13   0.000000D+00  0.000000D+00  0.000000D+00  0.000000D+00  0.000000D+00
     14   0.000000D+00  0.000000D+00  0.000000D+00  0.000000D+00  0.000000D+00
     15   0.000000D+00  0.000000D+00  0.000000D+00  0.000000D+00  0.000000D+00
     16   0.000000D+00  0.000000D+00  0.000000D+00  0.000000D+00  0.000000D+00
                11            12            13            14            15 
      1   0.000000D+00  0.000000D+00  0.000000D+00  0.000000D+00  0.000000D+00
      2   0.000000D+00  0.000000D+00  0.000000D+00  0.000000D+00  0.000000D+00
      3   0.000000D+00  0.000000D+00  0.000000D+00  0.000000D+00  0.000000D+00
      4   0.000000D+00  0.000000D+00  0.000000D+00  0.000000D+00  0.000000D+00
      5   0.000000D+00  0.000000D+00  0.000000D+00  0.000000D+00  0.000000D+00
      6   0.000000D+00  0.000000D+00  0.000000D+00  0.000000D+00  0.000000D+00
      7   0.000000D+00  0.000000D+00  0.000000D+00  0.000000D+00  0.000000D+00
      8   0.000000D+00  0.000000D+00  0.000000D+00  0.000000D+00  0.000000D+00
      9   0.000000D+00  0.000000D+00  0.000000D+00  0.000000D+00  0.000000D+00
     10   0.000000D+00  0.000000D+00  0.000000D+00  0.000000D+00  0.000000D+00
     11   0.000000D+00  0.000000D+00  0.000000D+00  0.000000D+00  0.000000D+00
     12   0.000000D+00  0.000000D+00  0.000000D+00  0.000000D+00  0.000000D+00
     13   0.000000D+00  0.000000D+00  0.000000D+00  0.000000D+00  0.000000D+00
     14   0.000000D+00  0.000000D+00  0.000000D+00  0.000000D+00  0.000000D+00
     15   0.000000D+00  0.000000D+00  0.000000D+00  0.000000D+00  0.000000D+00
     16   0.000000D+00  0.000000D+00  0.000000D+00  0.000000D+00  0.000000D+00
                16            17            18 
      1   0.000000D+00  0.000000D+00  0.000000D+00
      2   0.000000D+00  0.000000D+00  0.000000D+00
      3   0.000000D+00  0.000000D+00  0.000000D+00
      4   0.000000D+00  0.000000D+00  0.000000D+00
      5   0.000000D+00  0.000000D+00  0.000000D+00
      6   0.000000D+00  0.000000D+00  0.000000D+00
      7   0.000000D+00  0.000000D+00  0.000000D+00
      8   0.000000D+00  0.000000D+00  0.000000D+00
      9   0.000000D+00  0.000000D+00  0.000000D+00
     10   0.000000D+00  0.000000D+00  0.000000D+00
     11   0.000000D+00  0.000000D+00  0.000000D+00
     12   0.000000D+00  0.000000D+00  0.000000D+00
     13   0.000000D+00  0.000000D+00  0.000000D+00
     14   0.000000D+00  0.000000D+00  0.000000D+00
     15   0.000000D+00  0.000000D+00  0.000000D+00
     16   0.000000D+00  0.000000D+00  0.000000D+00

 ----------------------------------------------------------------------

 Electric dipole moment (input orientation):
 (Debye = 10**-18 statcoulomb cm , SI units = C m)
                  (au)            (Debye)         (10**-30 SI)
   Tot        0.176510D+01      0.448645D+01      0.149652D+02
   x          0.000000D+00      0.000000D+00      0.000000D+00
   y          0.176510D+01      0.448645D+01      0.149652D+02
   z          0.000000D+00      0.000000D+00      0.000000D+00

 Dipole polarizability, Alpha (input orientation).
 (esu units = cm**3 , SI units = C**2 m**2 J**-1)
 Alpha(0;0):
               (au)            (10**-24 esu)      (10**-40 SI)
   iso        0.975959D+02      0.144622D+02      0.160914D+02
   aniso      0.725807D+02      0.107553D+02      0.119669D+02
   xx         0.780568D+02      0.115668D+02      0.128698D+02
   yx         0.000000D+00      0.000000D+00      0.000000D+00
   yy         0.690295D+02      0.102291D+02      0.113814D+02
   zx         0.000000D+00      0.000000D+00      0.000000D+00
   zy         0.000000D+00      0.000000D+00      0.000000D+00
   zz         0.145702D+03      0.215907D+02      0.240229D+02

 ----------------------------------------------------------------------

 Dipole orientation:
    92          0.00000000         -0.00000000          0.48921699
     8         -3.29647144         -0.00000000          0.88718839
     8          3.29647144         -0.00000000          0.88718839
    17         -0.00000000          3.83952972         -2.35507757
    17          0.00000000         -3.83952972         -2.35507757

 Electric dipole moment (dipole orientation):
 (Debye = 10**-18 statcoulomb cm , SI units = C m)
                  (au)            (Debye)         (10**-30 SI)
   Tot        0.176510D+01      0.448645D+01      0.149652D+02
   x          0.000000D+00      0.000000D+00      0.000000D+00
   y          0.000000D+00      0.000000D+00      0.000000D+00
   z          0.176510D+01      0.448645D+01      0.149652D+02

 Dipole polarizability, Alpha (dipole orientation).
 (esu units = cm**3 , SI units = C**2 m**2 J**-1)
 Alpha(0;0):
               (au)            (10**-24 esu)      (10**-40 SI)
   iso        0.975959D+02      0.144622D+02      0.160914D+02
   aniso      0.725807D+02      0.107553D+02      0.119669D+02
   xx         0.780568D+02      0.115668D+02      0.128698D+02
   yx         0.000000D+00      0.000000D+00      0.000000D+00
   yy         0.145702D+03      0.215907D+02      0.240229D+02
   zx         0.000000D+00      0.000000D+00      0.000000D+00
   zy         0.000000D+00      0.000000D+00      0.000000D+00
   zz         0.690295D+02      0.102291D+02      0.113814D+02

 ----------------------------------------------------------------------

 Test job not archived.
 1\1\GINC-U-0-10\Freq\RPBE1PBE TD-FC\Gen\Cl2O2U1\VALLET\24-Jun-2022\0\\
 #p PBE1PBE/GEN GFInput GFPrint 5D 7F Pseudo=Read IOP(2/9=2, 4/69=2, 6/
 7=3, 8/10=91, 8/37=22, 8/38=0) EmpiricalDispersion=GD3BJ Symm=(Loose) 
 Int=(UltraFine) Guess=(CheckPoint) Geom=CheckPoint Scf=(NoVarAcc,MaxCy
 cle=100,conver=8) td=(triplets,nstates=4,root=2) Freq\\[UO2Cl4]2- - PB
 E0+D3BJ - ES\\0,1\U,0.,0.258882483,0.\O,-1.7444175637,0.4694798785,0.\
 O,1.7444175637,0.4694798785,0.\Cl,0.,-1.2462533796,-2.0317916259\Cl,0.
 ,-1.2462533796,2.0317916259\\Version=ES64L-G16RevC.01\State=1-A1\HF=-1
 547.6442578\RMSD=6.431e-09\RMSF=1.791e-08\ZeroPoint=0.0068676\Thermal=
 0.0131352\ETot=-1547.5489545\HTot=-1547.5480103\GTot=-1547.5884055\Dip
 ole=0.,1.7651041,0.\DipoleDeriv=1.4646336,0.,0.,0.,1.6167551,0.,0.,0.,
 2.1956774,-0.550274,0.2398387,0.,0.1775869,-0.3899465,0.,0.,0.,-0.4023
 74,-0.5502739,-0.2398388,0.,-0.177587,-0.3899465,0.,0.,0.,-0.4023741,-
 0.1820428,0.,0.,0.,-0.4184311,-0.2437706,0.,-0.1859182,-0.6954646,-0.1
 820428,0.,0.,0.,-0.4184311,0.2437706,0.,0.1859182,-0.6954646\Polar=78.
 0567702,-0.0000004,69.029533,0.,0.,145.7015427\PG=C02V [C2(U1),SGV(O2)
 ,SGV'(Cl2)]\NImag=1\\0.77205381,0.,0.15601905,0.,0.,0.21796910,-0.3740
 2205,0.02270408,0.,0.41860850,0.03479637,-0.03167098,0.,-0.04127675,0.
 02112906,0.,0.,-0.03666670,0.,0.,0.01678070,-0.37402205,-0.02270408,0.
 ,-0.04878454,0.00019101,0.,0.41860849,-0.03479638,-0.03167098,0.,-0.00
 019101,0.01076730,0.,0.04127675,0.02112906,0.,0.,-0.03665779,0.,0.,0.0
 1741690,0.,0.,0.01678111,-0.01200486,0.,-0.00000400,0.00209905,0.00314
 468,-0.00028379,0.00209905,-0.00314468,0.00028360,0.00364550,0.,-0.046
 33854,-0.04986178,0.00938184,-0.00011269,-0.00084908,-0.00938184,-0.00
 011269,-0.00085162,0.00000114,0.04245629,0.,-0.05095228,-0.07232230,0.
 01303107,-0.00161848,0.00123455,-0.01303107,-0.00161848,0.00122989,0.0
 0000209,0.05287587,0.07144710,-0.01200486,0.,0.00000400,0.00209905,0.0
 0314468,0.00028379,0.00209905,-0.00314468,-0.00028360,0.00416126,-0.00
 000114,-0.00000209,0.00364550,0.,-0.04633854,0.04986178,0.00938184,-0.
 00011269,0.00084908,-0.00938184,-0.00011269,0.00085162,-0.00000114,0.0
 0410763,0.00131338,0.00000114,0.04245629,0.,0.05095228,-0.07232230,-0.
 01303107,0.00161848,0.00123455,0.01303107,0.00161848,0.00122989,0.0000
 0209,-0.00131338,-0.00158923,-0.00000209,-0.05287587,0.07144710\\0.,-0
 .00000002,0.,0.00000004,0.00000002,0.,-0.00000004,0.00000002,0.,0.,0.,
 0.,0.,0.,0.\\\@


 KNIGHT- SIRE, I'VE JUST RETURNED FROM THE FRONT
 KING-   HOW GOES THE BATTLE                    
 KNIGHT- THE SITUATION IS QUITE FLUID           
 KING-   WHAT DOES *THAT* MEAN                  
 KNIGHT- WE'RE UP THE CREEK                     
                THE WIZARD OF ID                
 Job cpu time:       0 days  2 hours 18 minutes 54.8 seconds.
 Elapsed time:       0 days  0 hours 35 minutes 24.0 seconds.
 File lengths (MBytes):  RWF=    261 Int=      0 D2E=      0 Chk=     15 Scr=      1
 Normal termination of Gaussian 16 at Fri Jun 24 12:22:29 2022.
