 Entering Gaussian System, Link 0=/home/pcmt/gaussian/g16.C.01/g16/g16
 AtFile(1): /home/vallet/basis/U-ECP60MWB_SEG
 AtFile(1): /home/vallet/basis/U-ECP60MWB
 Initial command:
 /home/pcmt/gaussian/g16.C.01/g16/l1.exe "/state/partition2/vallet/866027.phlam-s-sakura/Gau-78948.inp" -scrdir="/state/partition2/vallet/866027.phlam-s-sakura/"
 Entering Link 1 = /home/pcmt/gaussian/g16.C.01/g16/l1.exe PID=     78950.
  
 Copyright (c) 1988-2019, Gaussian, Inc.  All Rights Reserved.
  
 This is part of the Gaussian(R) 16 program.  It is based on
 the Gaussian(R) 09 system (copyright 2009, Gaussian, Inc.),
 the Gaussian(R) 03 system (copyright 2003, Gaussian, Inc.),
 the Gaussian(R) 98 system (copyright 1998, Gaussian, Inc.),
 the Gaussian(R) 94 system (copyright 1995, Gaussian, Inc.),
 the Gaussian 92(TM) system (copyright 1992, Gaussian, Inc.),
 the Gaussian 90(TM) system (copyright 1990, Gaussian, Inc.),
 the Gaussian 88(TM) system (copyright 1988, Gaussian, Inc.),
 the Gaussian 86(TM) system (copyright 1986, Carnegie Mellon
 University), and the Gaussian 82(TM) system (copyright 1983,
 Carnegie Mellon University). Gaussian is a federally registered
 trademark of Gaussian, Inc.
  
 This software contains proprietary and confidential information,
 including trade secrets, belonging to Gaussian, Inc.
  
 This software is provided under written license and may be
 used, copied, transmitted, or stored only in accord with that
 written license.
  
 The following legend is applicable only to US Government
 contracts under FAR:
  
                    RESTRICTED RIGHTS LEGEND
  
 Use, reproduction and disclosure by the US Government is
 subject to restrictions as set forth in subparagraphs (a)
 and (c) of the Commercial Computer Software - Restricted
 Rights clause in FAR 52.227-19.
  
 Gaussian, Inc.
 340 Quinnipiac St., Bldg. 40, Wallingford CT 06492
  
  
 ---------------------------------------------------------------
 Warning -- This program may not be used in any manner that
 competes with the business of Gaussian, Inc. or will provide
 assistance to any competitor of Gaussian, Inc.  The licensee
 of this program is prohibited from giving any competitor of
 Gaussian, Inc. access to this program.  By using this program,
 the user acknowledges that Gaussian, Inc. is engaged in the
 business of creating and licensing software in the field of
 computational chemistry and represents and warrants to the
 licensee that it is not a competitor of Gaussian, Inc. and that
 it will not use this program in any manner prohibited above.
 ---------------------------------------------------------------
  

 Cite this work as:
 Gaussian 16, Revision C.01,
 M. J. Frisch, G. W. Trucks, H. B. Schlegel, G. E. Scuseria, 
 M. A. Robb, J. R. Cheeseman, G. Scalmani, V. Barone, 
 G. A. Petersson, H. Nakatsuji, X. Li, M. Caricato, A. V. Marenich, 
 J. Bloino, B. G. Janesko, R. Gomperts, B. Mennucci, H. P. Hratchian, 
 J. V. Ortiz, A. F. Izmaylov, J. L. Sonnenberg, D. Williams-Young, 
 F. Ding, F. Lipparini, F. Egidi, J. Goings, B. Peng, A. Petrone, 
 T. Henderson, D. Ranasinghe, V. G. Zakrzewski, J. Gao, N. Rega, 
 G. Zheng, W. Liang, M. Hada, M. Ehara, K. Toyota, R. Fukuda, 
 J. Hasegawa, M. Ishida, T. Nakajima, Y. Honda, O. Kitao, H. Nakai, 
 T. Vreven, K. Throssell, J. A. Montgomery, Jr., J. E. Peralta, 
 F. Ogliaro, M. J. Bearpark, J. J. Heyd, E. N. Brothers, K. N. Kudin, 
 V. N. Staroverov, T. A. Keith, R. Kobayashi, J. Normand, 
 K. Raghavachari, A. P. Rendell, J. C. Burant, S. S. Iyengar, 
 J. Tomasi, M. Cossi, J. M. Millam, M. Klene, C. Adamo, R. Cammi, 
 J. W. Ochterski, R. L. Martin, K. Morokuma, O. Farkas, 
 J. B. Foresman, and D. J. Fox, Gaussian, Inc., Wallingford CT, 2019.
 
 ******************************************
 Gaussian 16:  ES64L-G16RevC.01  3-Jul-2019
                23-Jun-2022 
 ******************************************
 %mem=8000Mb
 %NProc=4
 Will use up to    4 processors via shared memory.
 %oldchk=gs-uo2_cl2.pbe0-d3.optg.chk
 %chk=tddft-s2-uo2_cl2.pbe0-d3.optg.chk
 Copying data from "gs-uo2_cl2.pbe0-d3.optg.chk" to current chk file "tddft-s2-uo2_cl2.pbe0-d3.optg.chk"
 IOpt=  2 FromEx=T IUOpen= 4 IOptOp= 5 NList=   0 IFRang= 0 IUIn= 4 IUOut= 2.
 ----------------------------------------------------------------------
 #p PBE1PBE/GEN GFInput GFPrint 5D 7F Pseudo=Read IOP(2/9=2, 4/69=2, 6/
 7=3, 8/10=91, 8/37=22, 8/38=0) EmpiricalDispersion=GD3BJ Symm=(Loose) 
 Int=(UltraFine) Guess=(Harris) Scf=(NoVarAcc,MaxCycle=100,conver=8) td
 =(triplets,nstates=4,root=2) Opt=Tight
 ----------------------------------------------------------------------
 1/7=10,18=20,19=15,26=4,38=1/1,3;
 2/9=2,12=2,17=4,18=3,40=1/2;
 3/5=7,8=11,11=9,16=1,17=8,24=110,25=1,30=1,71=1,74=-13,75=-5,124=41/1,2,3,8;
 4/11=8,69=2/1;
 5/5=2,6=8,7=100,38=1/2;
 8/6=1,10=91,37=22,107=2,108=4/1;
 9/8=2,15=2,41=4,42=1,48=3,70=2/14;
 10/5=4,28=2/2;
 6/7=3,8=2,9=2,10=2/1;
 7/12=6,13=5,14=2/1,2,3,16;
 1/7=10,18=20,19=15,26=4/3(2);
 2/9=2/2;
 99//99;
 2/9=2/2;
 3/5=7,6=1,8=11,11=9,16=1,17=8,25=1,30=1,71=1,74=-13,75=-5,82=7,124=41/1,2,3,8;
 4/5=5,11=8,16=3,69=2/1;
 5/5=2,6=8,7=100,38=1/2;
 8/6=1,10=91,37=22,107=2,108=4/1;
 9/8=2,15=2,41=4,42=1,48=3,49=4,70=2/14;
 10/5=4,28=2/2;
 7/12=6,13=5,14=2/1,2,3,16;
 1/7=10,18=20,19=15,26=4/3(-8);
 2/9=2/2;
 6/7=3,8=2,9=2,10=2/1;
 99/9=10/99;
 Leave Link    1 at Thu Jun 23 14:31:24 2022, MaxMem=  1048576000 cpu:               0.5 elap:               0.1
 (Enter /home/pcmt/gaussian/g16.C.01/g16/l101.exe)
 ---------------------------
 [UO2Cl4]2- - PBE0+D3BJ - ES
 ---------------------------
 Symbolic Z-matrix:
 Charge =  0 Multiplicity = 1
 U                     0.        0.28722   0. 
 O                    -1.77414   0.31429   0. 
 O                     1.77414   0.31429   0. 
 Cl                    0.       -1.10604  -2.07747 
 Cl                    0.       -1.10604   2.07747 
 
 ITRead=  0  0  0  0  0
 MicOpt= -1 -1 -1 -1 -1
 NAtoms=      5 NQM=        5 NQMF=       0 NMMI=      0 NMMIF=      0
                NMic=       0 NMicF=      0.
                    Isotopes and Nuclear Properties:
 (Nuclear quadrupole moments (NQMom) in fm**2, nuclear magnetic moments (NMagM)
  in nuclear magnetons)

  Atom         1           2           3           4           5
 IAtWgt=         238          16          16          35          35
 AtmWgt= 238.0508000  15.9949146  15.9949146  34.9688527  34.9688527
 NucSpn=           0           0           0           3           3
 AtZEff=  -0.0000000  -0.0000000  -0.0000000  -0.0000000  -0.0000000
 NQMom=    0.0000000   0.0000000   0.0000000  -8.1650000  -8.1650000
 NMagM=    0.0000000   0.0000000   0.0000000   0.8218740   0.8218740
 AtZNuc=  92.0000000   8.0000000   8.0000000  17.0000000  17.0000000
 Leave Link  101 at Thu Jun 23 14:31:25 2022, MaxMem=  1048576000 cpu:               0.9 elap:               0.3
 (Enter /home/pcmt/gaussian/g16.C.01/g16/l103.exe)

 GradGradGradGradGradGradGradGradGradGradGradGradGradGradGradGradGradGrad
 Berny optimization.
 Initialization pass.
                           ----------------------------
                           !    Initial Parameters    !
                           ! (Angstroms and Degrees)  !
 --------------------------                            --------------------------
 ! Name  Definition              Value          Derivative Info.                !
 --------------------------------------------------------------------------------
 ! R1    R(1,2)                  1.7743         estimate D2E/DX2                !
 ! R2    R(1,3)                  1.7743         estimate D2E/DX2                !
 ! R3    R(1,4)                  2.5014         estimate D2E/DX2                !
 ! R4    R(1,5)                  2.5014         estimate D2E/DX2                !
 ! A1    A(2,1,4)               90.4869         estimate D2E/DX2                !
 ! A2    A(2,1,5)               90.4869         estimate D2E/DX2                !
 ! A3    A(3,1,4)               90.4869         estimate D2E/DX2                !
 ! A4    A(3,1,5)               90.4869         estimate D2E/DX2                !
 ! A5    A(4,1,5)              112.3043         estimate D2E/DX2                !
 ! A6    L(2,1,3,4,-1)         180.9738         estimate D2E/DX2                !
 ! A7    L(2,1,3,4,-2)         178.548          estimate D2E/DX2                !
 ! D1    D(2,1,5,4)             90.726          estimate D2E/DX2                !
 ! D2    D(3,1,5,4)            -90.726          estimate D2E/DX2                !
 --------------------------------------------------------------------------------
 Trust Radius=3.00D-01 FncErr=1.00D-07 GrdErr=1.00D-06 EigMax=2.50D+02 EigMin=1.00D-04
 Number of steps in this run=     23 maximum allowed number of steps=    100.
 GradGradGradGradGradGradGradGradGradGradGradGradGradGradGradGradGradGrad

 Leave Link  103 at Thu Jun 23 14:31:25 2022, MaxMem=  1048576000 cpu:               0.1 elap:               0.1
 (Enter /home/pcmt/gaussian/g16.C.01/g16/l202.exe)
                          Input orientation:                          
 ---------------------------------------------------------------------
 Center     Atomic      Atomic             Coordinates (Angstroms)
 Number     Number       Type             X           Y           Z
 ---------------------------------------------------------------------
      1         92           0        0.000000    0.287220    0.000000
      2          8           0       -1.774140    0.314290    0.000000
      3          8           0        1.774140    0.314290    0.000000
      4         17           0        0.000000   -1.106040   -2.077470
      5         17           0        0.000000   -1.106040    2.077470
 ---------------------------------------------------------------------
                    Distance matrix (angstroms):
                    1          2          3          4          5
     1  U    0.000000
     2  O    1.774347   0.000000
     3  O    1.774347   3.548280   0.000000
     4  Cl   2.501411   3.079089   3.079089   0.000000
     5  Cl   2.501411   3.079089   3.079089   4.154940   0.000000
 Stoichiometry    Cl2O2U
 Framework group  C2V[C2(U),SGV(O2),SGV'(Cl2)]
 Deg. of freedom     4
 Full point group                 C2V     NOp   4
 Largest Abelian subgroup         C2V     NOp   4
 Largest concise Abelian subgroup C2V     NOp   4
                         Standard orientation:                         
 ---------------------------------------------------------------------
 Center     Atomic      Atomic             Coordinates (Angstroms)
 Number     Number       Type             X           Y           Z
 ---------------------------------------------------------------------
      1         92           0       -0.000000    0.000000    0.330547
      2          8           0        0.000000    1.774140    0.357617
      3          8           0       -0.000000   -1.774140    0.357617
      4         17           0        2.077470   -0.000000   -1.062713
      5         17           0       -2.077470    0.000000   -1.062713
 ---------------------------------------------------------------------
 Rotational constants (GHZ):           2.4176024           1.2554966           1.2320489
 Leave Link  202 at Thu Jun 23 14:31:25 2022, MaxMem=  1048576000 cpu:               0.1 elap:               0.1
 (Enter /home/pcmt/gaussian/g16.C.01/g16/l301.exe)
 General basis read from cards:  (5D, 7F)
 Centers:       1
 S 3 1.00
     Exponent=  1.2098082000D+04 Coefficients=  1.0200000000D-04
     Exponent=  1.8337573000D+03 Coefficients=  7.7100000000D-04
     Exponent=  3.5168632000D+02 Coefficients=  2.9690000000D-03
 S 1 1.00
     Exponent=  1.0431426000D+02 Coefficients=  1.0000000000D+00
 S 3 1.00
     Exponent=  6.0905822000D+01 Coefficients=  4.9868000000D-02
     Exponent=  3.5515086000D+01 Coefficients= -2.4531300000D-01
     Exponent=  2.0891227000D+01 Coefficients=  7.2384700000D-01
 S 1 1.00
     Exponent=  1.0184647000D+01 Coefficients=  1.0000000000D+00
 S 1 1.00
     Exponent=  2.8518510000D+00 Coefficients=  1.0000000000D+00
 S 1 1.00
     Exponent=  1.5316160000D+00 Coefficients=  1.0000000000D+00
 S 1 1.00
     Exponent=  6.1620300000D-01 Coefficients=  1.0000000000D+00
 S 1 1.00
     Exponent=  2.7949400000D-01 Coefficients=  1.0000000000D+00
 S 1 1.00
     Exponent=  5.7253000000D-02 Coefficients=  1.0000000000D+00
 S 1 1.00
     Exponent=  2.3443000000D-02 Coefficients=  1.0000000000D+00
 P 5 1.00
     Exponent=  2.9068451000D+03 Coefficients=  8.8000000000D-05
     Exponent=  6.9440053000D+02 Coefficients=  7.3200000000D-04
     Exponent=  2.2463479000D+02 Coefficients=  3.4140000000D-03
     Exponent=  8.0520526000D+01 Coefficients=  1.1099000000D-02
     Exponent=  2.4080211000D+01 Coefficients=  2.5216000000D-02
 P 1 1.00
     Exponent=  1.4077580000D+01 Coefficients=  1.0000000000D+00
 P 1 1.00
     Exponent=  8.2658460000D+00 Coefficients=  1.0000000000D+00
 P 1 1.00
     Exponent=  3.4236070000D+00 Coefficients=  1.0000000000D+00
 P 1 1.00
     Exponent=  1.7084170000D+00 Coefficients=  1.0000000000D+00
 P 1 1.00
     Exponent=  6.5504600000D-01 Coefficients=  1.0000000000D+00
 P 1 1.00
     Exponent=  2.8375500000D-01 Coefficients=  1.0000000000D+00
 P 1 1.00
     Exponent=  1.0181400000D-01 Coefficients=  1.0000000000D+00
 P 1 1.00
     Exponent=  3.0535000000D-02 Coefficients=  1.0000000000D+00
 D 6 1.00
     Exponent=  4.4901953000D+02 Coefficients=  5.0000000000D-05
     Exponent=  1.5635695000D+02 Coefficients=  3.2200000000D-04
     Exponent=  6.0242439000D+01 Coefficients=  1.7770000000D-03
     Exponent=  1.7772317000D+01 Coefficients=  2.5385000000D-02
     Exponent=  1.0454304000D+01 Coefficients= -8.9378000000D-02
     Exponent=  3.5834330000D+00 Coefficients=  4.4479900000D-01
 D 1 1.00
     Exponent=  1.7637240000D+00 Coefficients=  1.0000000000D+00
 D 1 1.00
     Exponent=  7.8403000000D-01 Coefficients=  1.0000000000D+00
 D 1 1.00
     Exponent=  2.7612700000D-01 Coefficients=  1.0000000000D+00
 D 1 1.00
     Exponent=  8.6980000000D-02 Coefficients=  1.0000000000D+00
 F 5 1.00
     Exponent=  1.0528793000D+02 Coefficients=  2.2800000000D-04
     Exponent=  3.5101181000D+01 Coefficients=  2.3080000000D-03
     Exponent=  1.4564138000D+01 Coefficients=  9.2530000000D-03
     Exponent=  4.6518850000D+00 Coefficients=  1.3694900000D-01
     Exponent=  2.2559730000D+00 Coefficients=  3.3980100000D-01
 F 1 1.00
     Exponent=  1.0102740000D+00 Coefficients=  1.0000000000D+00
 F 1 1.00
     Exponent=  4.1168000000D-01 Coefficients=  1.0000000000D+00
 F 1 1.00
     Exponent=  1.4412000000D-01 Coefficients=  1.0000000000D+00
 G 4 1.00
     Exponent=  1.0528793000D+02 Coefficients=  1.3700000000D-04
     Exponent=  3.5101181000D+01 Coefficients=  1.8310000000D-03
     Exponent=  1.4564138000D+01 Coefficients=  1.9940000000D-02
     Exponent=  4.6518850000D+00 Coefficients=  1.1075800000D-01
 G 1 1.00
     Exponent=  2.2559730000D+00 Coefficients=  1.0000000000D+00
 G 1 1.00
     Exponent=  1.0102740000D+00 Coefficients=  1.0000000000D+00
 ****
 Centers:       4      5
 Def2TZVP
 ****
 Centers:       2      3
 Def2TZVP
 ****
 ======================================================================================================
                                       Pseudopotential Parameters
 ======================================================================================================
  Center     Atomic      Valence      Angular      Power
  Number     Number     Electrons     Momentum     of R      Exponent        Coefficient   SO-Coeffient
 ======================================================================================================
    1         92           32
                                      H and up 
                                                     2        1.0000000        0.00000000    0.00000000
                                      S - H
                                                     2       16.4140387      536.51662778    0.00000000
                                      P - H
                                                     2        9.0605561      169.54492465    0.00000000
                                      D - H
                                                     2        8.8318320      142.61559837    0.00000000
                                      F - H
                                                     2        7.0185163       60.39307602    0.00000000
                                      G - H
                                                     2       12.8040884      -60.12998958    0.00000000
    2          8
                                   No pseudopotential on this center.
    3          8
                                   No pseudopotential on this center.
    4         17
                                   No pseudopotential on this center.
    5         17
                                   No pseudopotential on this center.
 ======================================================================================================
 Ernie: Thresh=  0.10000D-02 Tol=  0.10000D-05 Strict=F.
 AO basis set in the form of general basis input (Overlap normalization):
      1 0
 S   3 1.00       0.000000000000
      0.1209808200D+05  0.2884168448D-01
      0.1833757300D+04  0.2180092033D+00
      0.3516863200D+03  0.8395192276D+00
 S   3 1.00       0.000000000000
      0.6090582200D+02  0.9338504807D-01
      0.3551508600D+02 -0.4593840999D+00
      0.2089122700D+02  0.1355508280D+01
 S   1 1.00       0.000000000000
      0.1043142600D+03  0.1000000000D+01
 S   1 1.00       0.000000000000
      0.1018464700D+02  0.1000000000D+01
 S   1 1.00       0.000000000000
      0.2851851000D+01  0.1000000000D+01
 S   1 1.00       0.000000000000
      0.1531616000D+01  0.1000000000D+01
 S   1 1.00       0.000000000000
      0.6162030000D+00  0.1000000000D+01
 S   1 1.00       0.000000000000
      0.2794940000D+00  0.1000000000D+01
 S   1 1.00       0.000000000000
      0.5725300000D-01  0.1000000000D+01
 S   1 1.00       0.000000000000
      0.2344300000D-01  0.1000000000D+01
 P   5 1.00       0.000000000000
      0.2906845100D+04  0.2490724940D-02
      0.6944005300D+03  0.2071830291D-01
      0.2246347900D+03  0.9662880620D-01
      0.8052052600D+02  0.3141426831D+00
      0.2408021100D+02  0.7137059101D+00
 P   1 1.00       0.000000000000
      0.1407758000D+02  0.1000000000D+01
 P   1 1.00       0.000000000000
      0.8265846000D+01  0.1000000000D+01
 P   1 1.00       0.000000000000
      0.3423607000D+01  0.1000000000D+01
 P   1 1.00       0.000000000000
      0.1708417000D+01  0.1000000000D+01
 P   1 1.00       0.000000000000
      0.6550460000D+00  0.1000000000D+01
 P   1 1.00       0.000000000000
      0.2837550000D+00  0.1000000000D+01
 P   1 1.00       0.000000000000
      0.1018140000D+00  0.1000000000D+01
 P   1 1.00       0.000000000000
      0.3053500000D-01  0.1000000000D+01
 D   6 1.00       0.000000000000
      0.4490195300D+03  0.1244413406D-03
      0.1563569500D+03  0.8014022332D-03
      0.6024243900D+02  0.4422645243D-02
      0.1777231700D+02  0.6317886860D-01
      0.1045430400D+02 -0.2224463627D+00
      0.3583433000D+01  0.1107027677D+01
 D   1 1.00       0.000000000000
      0.1763724000D+01  0.1000000000D+01
 D   1 1.00       0.000000000000
      0.7840300000D+00  0.1000000000D+01
 D   1 1.00       0.000000000000
      0.2761270000D+00  0.1000000000D+01
 D   1 1.00       0.000000000000
      0.8698000000D-01  0.1000000000D+01
 F   5 1.00       0.000000000000
      0.1052879300D+03  0.5015876177D-03
      0.3510118100D+02  0.5077474656D-02
      0.1456413800D+02  0.2035609748D-01
      0.4651885000D+01  0.3012803625D+00
      0.2255973000D+01  0.7475437460D+00
 F   1 1.00       0.000000000000
      0.1010274000D+01  0.1000000000D+01
 F   1 1.00       0.000000000000
      0.4116800000D+00  0.1000000000D+01
 F   1 1.00       0.000000000000
      0.1441200000D+00  0.1000000000D+01
 G   4 1.00       0.000000000000
      0.1052879300D+03  0.1132460043D-02
      0.3510118100D+02  0.1513528715D-01
      0.1456413800D+02  0.1648266662D+00
      0.4651885000D+01  0.9155402153D+00
 G   1 1.00       0.000000000000
      0.2255973000D+01  0.1000000000D+01
 G   1 1.00       0.000000000000
      0.1010274000D+01  0.1000000000D+01
 ****
      2 0
 S   6 1.00       0.000000000000
      0.2703238263D+05  0.5722733521D-03
      0.4052387139D+04  0.4435323349D-02
      0.9223272271D+03  0.2302010771D-01
      0.2612407099D+03  0.9282249067D-01
      0.8535464135D+02  0.2937850001D+00
      0.3103503524D+02  0.6740160450D+00
 S   2 1.00       0.000000000000
      0.1226086073D+02  0.6383993703D+00
      0.4998707601D+01  0.3953458713D+00
 S   1 1.00       0.000000000000
      0.1170310816D+01  0.1000000000D+01
 S   1 1.00       0.000000000000
      0.4647474099D+00  0.1000000000D+01
 S   1 1.00       0.000000000000
      0.1850453636D+00  0.1000000000D+01
 P   4 1.00       0.000000000000
      0.6327495480D+02  0.1201833222D-01
      0.1462704938D+02  0.8300542179D-01
      0.4450122346D+01  0.3199174393D+00
      0.1527579965D+01  0.7071554292D+00
 P   1 1.00       0.000000000000
      0.5293511794D+00  0.1000000000D+01
 P   1 1.00       0.000000000000
      0.1747842127D+00  0.1000000000D+01
 D   1 1.00       0.000000000000
      0.2314000000D+01  0.1000000000D+01
 D   1 1.00       0.000000000000
      0.6450000000D+00  0.1000000000D+01
 F   1 1.00       0.000000000000
      0.1428000000D+01  0.1000000000D+01
 ****
      3 0
 S   6 1.00       0.000000000000
      0.2703238263D+05  0.5722733521D-03
      0.4052387139D+04  0.4435323349D-02
      0.9223272271D+03  0.2302010771D-01
      0.2612407099D+03  0.9282249067D-01
      0.8535464135D+02  0.2937850001D+00
      0.3103503524D+02  0.6740160450D+00
 S   2 1.00       0.000000000000
      0.1226086073D+02  0.6383993703D+00
      0.4998707601D+01  0.3953458713D+00
 S   1 1.00       0.000000000000
      0.1170310816D+01  0.1000000000D+01
 S   1 1.00       0.000000000000
      0.4647474099D+00  0.1000000000D+01
 S   1 1.00       0.000000000000
      0.1850453636D+00  0.1000000000D+01
 P   4 1.00       0.000000000000
      0.6327495480D+02  0.1201833222D-01
      0.1462704938D+02  0.8300542179D-01
      0.4450122346D+01  0.3199174393D+00
      0.1527579965D+01  0.7071554292D+00
 P   1 1.00       0.000000000000
      0.5293511794D+00  0.1000000000D+01
 P   1 1.00       0.000000000000
      0.1747842127D+00  0.1000000000D+01
 D   1 1.00       0.000000000000
      0.2314000000D+01  0.1000000000D+01
 D   1 1.00       0.000000000000
      0.6450000000D+00  0.1000000000D+01
 F   1 1.00       0.000000000000
      0.1428000000D+01  0.1000000000D+01
 ****
      4 0
 S   7 1.00       0.000000000000
      0.6950799094D+05  0.5145738965D-03
      0.1042615688D+05  0.3978134481D-02
      0.2373233406D+04  0.2045617867D-01
      0.6715642007D+03  0.8014810289D-01
      0.2184199979D+03  0.2345477032D+00
      0.7757224971D+02  0.4454336858D+00
      0.2888881528D+02  0.3546684250D+00
 S   3 1.00       0.000000000000
      0.1271052718D+03  0.1129368805D+00
      0.3933958296D+02  0.4837351421D+00
      0.7674067999D+01 -0.1229229739D+01
 S   2 1.00       0.000000000000
      0.3874562763D+01  0.6729682164D+00
      0.1838583257D+01  0.3495605141D+00
 S   1 1.00       0.000000000000
      0.5022905754D+00  0.1000000000D+01
 S   1 1.00       0.000000000000
      0.1796272342D+00  0.1000000000D+01
 P   5 1.00       0.000000000000
      0.6665042328D+03  0.3350250820D-02
      0.1576424169D+03  0.2676397041D-01
      0.5026252098D+02  0.1236268236D+00
      0.1853607811D+02  0.3584578792D+00
      0.7294053278D+01  0.6167729635D+00
 P   1 1.00       0.000000000000
      0.2943324899D+01  0.1000000000D+01
 P   1 1.00       0.000000000000
      0.1040497082D+01  0.1000000000D+01
 P   1 1.00       0.000000000000
      0.3845641508D+00  0.1000000000D+01
 P   1 1.00       0.000000000000
      0.1306964273D+00  0.1000000000D+01
 D   2 1.00       0.000000000000
      0.4610000000D+01  0.1826583505D+00
      0.1011000000D+01  0.9132917523D+00
 D   1 1.00       0.000000000000
      0.3390000000D+00  0.1000000000D+01
 F   1 1.00       0.000000000000
      0.7060000000D+00  0.1000000000D+01
 ****
      5 0
 S   7 1.00       0.000000000000
      0.6950799094D+05  0.5145738965D-03
      0.1042615688D+05  0.3978134481D-02
      0.2373233406D+04  0.2045617867D-01
      0.6715642007D+03  0.8014810289D-01
      0.2184199979D+03  0.2345477032D+00
      0.7757224971D+02  0.4454336858D+00
      0.2888881528D+02  0.3546684250D+00
 S   3 1.00       0.000000000000
      0.1271052718D+03  0.1129368805D+00
      0.3933958296D+02  0.4837351421D+00
      0.7674067999D+01 -0.1229229739D+01
 S   2 1.00       0.000000000000
      0.3874562763D+01  0.6729682164D+00
      0.1838583257D+01  0.3495605141D+00
 S   1 1.00       0.000000000000
      0.5022905754D+00  0.1000000000D+01
 S   1 1.00       0.000000000000
      0.1796272342D+00  0.1000000000D+01
 P   5 1.00       0.000000000000
      0.6665042328D+03  0.3350250820D-02
      0.1576424169D+03  0.2676397041D-01
      0.5026252098D+02  0.1236268236D+00
      0.1853607811D+02  0.3584578792D+00
      0.7294053278D+01  0.6167729635D+00
 P   1 1.00       0.000000000000
      0.2943324899D+01  0.1000000000D+01
 P   1 1.00       0.000000000000
      0.1040497082D+01  0.1000000000D+01
 P   1 1.00       0.000000000000
      0.3845641508D+00  0.1000000000D+01
 P   1 1.00       0.000000000000
      0.1306964273D+00  0.1000000000D+01
 D   2 1.00       0.000000000000
      0.4610000000D+01  0.1826583505D+00
      0.1011000000D+01  0.9132917523D+00
 D   1 1.00       0.000000000000
      0.3390000000D+00  0.1000000000D+01
 F   1 1.00       0.000000000000
      0.7060000000D+00  0.1000000000D+01
 ****

 AO basis set (Overlap normalization):
 Atom U1       Shell     1 S   3     bf    1 -     1         -0.000000000000         -0.000000000000          0.624643913461
      0.1209808200D+05  0.2884168448D-01
      0.1833757300D+04  0.2180092033D+00
      0.3516863200D+03  0.8395192276D+00
 Atom U1       Shell     2 S   3     bf    2 -     2         -0.000000000000         -0.000000000000          0.624643913461
      0.6090582200D+02  0.9338504807D-01
      0.3551508600D+02 -0.4593840999D+00
      0.2089122700D+02  0.1355508280D+01
 Atom U1       Shell     3 S   1     bf    3 -     3         -0.000000000000         -0.000000000000          0.624643913461
      0.1043142600D+03  0.1000000000D+01
 Atom U1       Shell     4 S   1     bf    4 -     4         -0.000000000000         -0.000000000000          0.624643913461
      0.1018464700D+02  0.1000000000D+01
 Atom U1       Shell     5 S   1     bf    5 -     5         -0.000000000000         -0.000000000000          0.624643913461
      0.2851851000D+01  0.1000000000D+01
 Atom U1       Shell     6 S   1     bf    6 -     6         -0.000000000000         -0.000000000000          0.624643913461
      0.1531616000D+01  0.1000000000D+01
 Atom U1       Shell     7 S   1     bf    7 -     7         -0.000000000000         -0.000000000000          0.624643913461
      0.6162030000D+00  0.1000000000D+01
 Atom U1       Shell     8 S   1     bf    8 -     8         -0.000000000000         -0.000000000000          0.624643913461
      0.2794940000D+00  0.1000000000D+01
 Atom U1       Shell     9 S   1     bf    9 -     9         -0.000000000000         -0.000000000000          0.624643913461
      0.5725300000D-01  0.1000000000D+01
 Atom U1       Shell    10 S   1     bf   10 -    10         -0.000000000000         -0.000000000000          0.624643913461
      0.2344300000D-01  0.1000000000D+01
 Atom U1       Shell    11 P   5     bf   11 -    13         -0.000000000000         -0.000000000000          0.624643913461
      0.2906845100D+04  0.2490724940D-02
      0.6944005300D+03  0.2071830291D-01
      0.2246347900D+03  0.9662880620D-01
      0.8052052600D+02  0.3141426831D+00
      0.2408021100D+02  0.7137059101D+00
 Atom U1       Shell    12 P   1     bf   14 -    16         -0.000000000000         -0.000000000000          0.624643913461
      0.1407758000D+02  0.1000000000D+01
 Atom U1       Shell    13 P   1     bf   17 -    19         -0.000000000000         -0.000000000000          0.624643913461
      0.8265846000D+01  0.1000000000D+01
 Atom U1       Shell    14 P   1     bf   20 -    22         -0.000000000000         -0.000000000000          0.624643913461
      0.3423607000D+01  0.1000000000D+01
 Atom U1       Shell    15 P   1     bf   23 -    25         -0.000000000000         -0.000000000000          0.624643913461
      0.1708417000D+01  0.1000000000D+01
 Atom U1       Shell    16 P   1     bf   26 -    28         -0.000000000000         -0.000000000000          0.624643913461
      0.6550460000D+00  0.1000000000D+01
 Atom U1       Shell    17 P   1     bf   29 -    31         -0.000000000000         -0.000000000000          0.624643913461
      0.2837550000D+00  0.1000000000D+01
 Atom U1       Shell    18 P   1     bf   32 -    34         -0.000000000000         -0.000000000000          0.624643913461
      0.1018140000D+00  0.1000000000D+01
 Atom U1       Shell    19 P   1     bf   35 -    37         -0.000000000000         -0.000000000000          0.624643913461
      0.3053500000D-01  0.1000000000D+01
 Atom U1       Shell    20 D   6     bf   38 -    42         -0.000000000000         -0.000000000000          0.624643913461
      0.4490195300D+03  0.1244413406D-03
      0.1563569500D+03  0.8014022332D-03
      0.6024243900D+02  0.4422645243D-02
      0.1777231700D+02  0.6317886860D-01
      0.1045430400D+02 -0.2224463627D+00
      0.3583433000D+01  0.1107027677D+01
 Atom U1       Shell    21 D   1     bf   43 -    47         -0.000000000000         -0.000000000000          0.624643913461
      0.1763724000D+01  0.1000000000D+01
 Atom U1       Shell    22 D   1     bf   48 -    52         -0.000000000000         -0.000000000000          0.624643913461
      0.7840300000D+00  0.1000000000D+01
 Atom U1       Shell    23 D   1     bf   53 -    57         -0.000000000000         -0.000000000000          0.624643913461
      0.2761270000D+00  0.1000000000D+01
 Atom U1       Shell    24 D   1     bf   58 -    62         -0.000000000000         -0.000000000000          0.624643913461
      0.8698000000D-01  0.1000000000D+01
 Atom U1       Shell    25 F   5     bf   63 -    69         -0.000000000000         -0.000000000000          0.624643913461
      0.1052879300D+03  0.5015876177D-03
      0.3510118100D+02  0.5077474656D-02
      0.1456413800D+02  0.2035609748D-01
      0.4651885000D+01  0.3012803625D+00
      0.2255973000D+01  0.7475437460D+00
 Atom U1       Shell    26 F   1     bf   70 -    76         -0.000000000000         -0.000000000000          0.624643913461
      0.1010274000D+01  0.1000000000D+01
 Atom U1       Shell    27 F   1     bf   77 -    83         -0.000000000000         -0.000000000000          0.624643913461
      0.4116800000D+00  0.1000000000D+01
 Atom U1       Shell    28 F   1     bf   84 -    90         -0.000000000000         -0.000000000000          0.624643913461
      0.1441200000D+00  0.1000000000D+01
 Atom U1       Shell    29 G   4     bf   91 -    99         -0.000000000000         -0.000000000000          0.624643913461
      0.1052879300D+03  0.1132460043D-02
      0.3510118100D+02  0.1513528715D-01
      0.1456413800D+02  0.1648266662D+00
      0.4651885000D+01  0.9155402153D+00
 Atom U1       Shell    30 G   1     bf  100 -   108         -0.000000000000         -0.000000000000          0.624643913461
      0.2255973000D+01  0.1000000000D+01
 Atom U1       Shell    31 G   1     bf  109 -   117         -0.000000000000         -0.000000000000          0.624643913461
      0.1010274000D+01  0.1000000000D+01
 Atom O2       Shell    32 S   6     bf  118 -   118          0.000000000000          3.352638706636          0.675798799653
      0.2703238263D+05  0.5722733521D-03
      0.4052387139D+04  0.4435323349D-02
      0.9223272271D+03  0.2302010771D-01
      0.2612407099D+03  0.9282249067D-01
      0.8535464135D+02  0.2937850001D+00
      0.3103503524D+02  0.6740160450D+00
 Atom O2       Shell    33 S   2     bf  119 -   119          0.000000000000          3.352638706636          0.675798799653
      0.1226086073D+02  0.6383993703D+00
      0.4998707601D+01  0.3953458713D+00
 Atom O2       Shell    34 S   1     bf  120 -   120          0.000000000000          3.352638706636          0.675798799653
      0.1170310816D+01  0.1000000000D+01
 Atom O2       Shell    35 S   1     bf  121 -   121          0.000000000000          3.352638706636          0.675798799653
      0.4647474099D+00  0.1000000000D+01
 Atom O2       Shell    36 S   1     bf  122 -   122          0.000000000000          3.352638706636          0.675798799653
      0.1850453636D+00  0.1000000000D+01
 Atom O2       Shell    37 P   4     bf  123 -   125          0.000000000000          3.352638706636          0.675798799653
      0.6327495480D+02  0.1201833222D-01
      0.1462704938D+02  0.8300542179D-01
      0.4450122346D+01  0.3199174393D+00
      0.1527579965D+01  0.7071554292D+00
 Atom O2       Shell    38 P   1     bf  126 -   128          0.000000000000          3.352638706636          0.675798799653
      0.5293511794D+00  0.1000000000D+01
 Atom O2       Shell    39 P   1     bf  129 -   131          0.000000000000          3.352638706636          0.675798799653
      0.1747842127D+00  0.1000000000D+01
 Atom O2       Shell    40 D   1     bf  132 -   136          0.000000000000          3.352638706636          0.675798799653
      0.2314000000D+01  0.1000000000D+01
 Atom O2       Shell    41 D   1     bf  137 -   141          0.000000000000          3.352638706636          0.675798799653
      0.6450000000D+00  0.1000000000D+01
 Atom O2       Shell    42 F   1     bf  142 -   148          0.000000000000          3.352638706636          0.675798799653
      0.1428000000D+01  0.1000000000D+01
 Atom O3       Shell    43 S   6     bf  149 -   149         -0.000000000000         -3.352638706636          0.675798799653
      0.2703238263D+05  0.5722733521D-03
      0.4052387139D+04  0.4435323349D-02
      0.9223272271D+03  0.2302010771D-01
      0.2612407099D+03  0.9282249067D-01
      0.8535464135D+02  0.2937850001D+00
      0.3103503524D+02  0.6740160450D+00
 Atom O3       Shell    44 S   2     bf  150 -   150         -0.000000000000         -3.352638706636          0.675798799653
      0.1226086073D+02  0.6383993703D+00
      0.4998707601D+01  0.3953458713D+00
 Atom O3       Shell    45 S   1     bf  151 -   151         -0.000000000000         -3.352638706636          0.675798799653
      0.1170310816D+01  0.1000000000D+01
 Atom O3       Shell    46 S   1     bf  152 -   152         -0.000000000000         -3.352638706636          0.675798799653
      0.4647474099D+00  0.1000000000D+01
 Atom O3       Shell    47 S   1     bf  153 -   153         -0.000000000000         -3.352638706636          0.675798799653
      0.1850453636D+00  0.1000000000D+01
 Atom O3       Shell    48 P   4     bf  154 -   156         -0.000000000000         -3.352638706636          0.675798799653
      0.6327495480D+02  0.1201833222D-01
      0.1462704938D+02  0.8300542179D-01
      0.4450122346D+01  0.3199174393D+00
      0.1527579965D+01  0.7071554292D+00
 Atom O3       Shell    49 P   1     bf  157 -   159         -0.000000000000         -3.352638706636          0.675798799653
      0.5293511794D+00  0.1000000000D+01
 Atom O3       Shell    50 P   1     bf  160 -   162         -0.000000000000         -3.352638706636          0.675798799653
      0.1747842127D+00  0.1000000000D+01
 Atom O3       Shell    51 D   1     bf  163 -   167         -0.000000000000         -3.352638706636          0.675798799653
      0.2314000000D+01  0.1000000000D+01
 Atom O3       Shell    52 D   1     bf  168 -   172         -0.000000000000         -3.352638706636          0.675798799653
      0.6450000000D+00  0.1000000000D+01
 Atom O3       Shell    53 F   1     bf  173 -   179         -0.000000000000         -3.352638706636          0.675798799653
      0.1428000000D+01  0.1000000000D+01
 Atom Cl4      Shell    54 S   7     bf  180 -   180          3.925849332000         -0.000000000000         -2.008235906850
      0.6950799094D+05  0.5145738965D-03
      0.1042615688D+05  0.3978134481D-02
      0.2373233406D+04  0.2045617867D-01
      0.6715642007D+03  0.8014810289D-01
      0.2184199979D+03  0.2345477032D+00
      0.7757224971D+02  0.4454336858D+00
      0.2888881528D+02  0.3546684250D+00
 Atom Cl4      Shell    55 S   3     bf  181 -   181          3.925849332000         -0.000000000000         -2.008235906850
      0.1271052718D+03  0.1129368805D+00
      0.3933958296D+02  0.4837351421D+00
      0.7674067999D+01 -0.1229229739D+01
 Atom Cl4      Shell    56 S   2     bf  182 -   182          3.925849332000         -0.000000000000         -2.008235906850
      0.3874562763D+01  0.6729682164D+00
      0.1838583257D+01  0.3495605141D+00
 Atom Cl4      Shell    57 S   1     bf  183 -   183          3.925849332000         -0.000000000000         -2.008235906850
      0.5022905754D+00  0.1000000000D+01
 Atom Cl4      Shell    58 S   1     bf  184 -   184          3.925849332000         -0.000000000000         -2.008235906850
      0.1796272342D+00  0.1000000000D+01
 Atom Cl4      Shell    59 P   5     bf  185 -   187          3.925849332000         -0.000000000000         -2.008235906850
      0.6665042328D+03  0.3350250820D-02
      0.1576424169D+03  0.2676397041D-01
      0.5026252098D+02  0.1236268236D+00
      0.1853607811D+02  0.3584578792D+00
      0.7294053278D+01  0.6167729635D+00
 Atom Cl4      Shell    60 P   1     bf  188 -   190          3.925849332000         -0.000000000000         -2.008235906850
      0.2943324899D+01  0.1000000000D+01
 Atom Cl4      Shell    61 P   1     bf  191 -   193          3.925849332000         -0.000000000000         -2.008235906850
      0.1040497082D+01  0.1000000000D+01
 Atom Cl4      Shell    62 P   1     bf  194 -   196          3.925849332000         -0.000000000000         -2.008235906850
      0.3845641508D+00  0.1000000000D+01
 Atom Cl4      Shell    63 P   1     bf  197 -   199          3.925849332000         -0.000000000000         -2.008235906850
      0.1306964273D+00  0.1000000000D+01
 Atom Cl4      Shell    64 D   2     bf  200 -   204          3.925849332000         -0.000000000000         -2.008235906850
      0.4610000000D+01  0.1826583505D+00
      0.1011000000D+01  0.9132917523D+00
 Atom Cl4      Shell    65 D   1     bf  205 -   209          3.925849332000         -0.000000000000         -2.008235906850
      0.3390000000D+00  0.1000000000D+01
 Atom Cl4      Shell    66 F   1     bf  210 -   216          3.925849332000         -0.000000000000         -2.008235906850
      0.7060000000D+00  0.1000000000D+01
 Atom Cl5      Shell    67 S   7     bf  217 -   217         -3.925849332000          0.000000000000         -2.008235906850
      0.6950799094D+05  0.5145738965D-03
      0.1042615688D+05  0.3978134481D-02
      0.2373233406D+04  0.2045617867D-01
      0.6715642007D+03  0.8014810289D-01
      0.2184199979D+03  0.2345477032D+00
      0.7757224971D+02  0.4454336858D+00
      0.2888881528D+02  0.3546684250D+00
 Atom Cl5      Shell    68 S   3     bf  218 -   218         -3.925849332000          0.000000000000         -2.008235906850
      0.1271052718D+03  0.1129368805D+00
      0.3933958296D+02  0.4837351421D+00
      0.7674067999D+01 -0.1229229739D+01
 Atom Cl5      Shell    69 S   2     bf  219 -   219         -3.925849332000          0.000000000000         -2.008235906850
      0.3874562763D+01  0.6729682164D+00
      0.1838583257D+01  0.3495605141D+00
 Atom Cl5      Shell    70 S   1     bf  220 -   220         -3.925849332000          0.000000000000         -2.008235906850
      0.5022905754D+00  0.1000000000D+01
 Atom Cl5      Shell    71 S   1     bf  221 -   221         -3.925849332000          0.000000000000         -2.008235906850
      0.1796272342D+00  0.1000000000D+01
 Atom Cl5      Shell    72 P   5     bf  222 -   224         -3.925849332000          0.000000000000         -2.008235906850
      0.6665042328D+03  0.3350250820D-02
      0.1576424169D+03  0.2676397041D-01
      0.5026252098D+02  0.1236268236D+00
      0.1853607811D+02  0.3584578792D+00
      0.7294053278D+01  0.6167729635D+00
 Atom Cl5      Shell    73 P   1     bf  225 -   227         -3.925849332000          0.000000000000         -2.008235906850
      0.2943324899D+01  0.1000000000D+01
 Atom Cl5      Shell    74 P   1     bf  228 -   230         -3.925849332000          0.000000000000         -2.008235906850
      0.1040497082D+01  0.1000000000D+01
 Atom Cl5      Shell    75 P   1     bf  231 -   233         -3.925849332000          0.000000000000         -2.008235906850
      0.3845641508D+00  0.1000000000D+01
 Atom Cl5      Shell    76 P   1     bf  234 -   236         -3.925849332000          0.000000000000         -2.008235906850
      0.1306964273D+00  0.1000000000D+01
 Atom Cl5      Shell    77 D   2     bf  237 -   241         -3.925849332000          0.000000000000         -2.008235906850
      0.4610000000D+01  0.1826583505D+00
      0.1011000000D+01  0.9132917523D+00
 Atom Cl5      Shell    78 D   1     bf  242 -   246         -3.925849332000          0.000000000000         -2.008235906850
      0.3390000000D+00  0.1000000000D+01
 Atom Cl5      Shell    79 F   1     bf  247 -   253         -3.925849332000          0.000000000000         -2.008235906850
      0.7060000000D+00  0.1000000000D+01
 Effective core potential in the form of general ECP input:
      1 0
 U1-ECP   5 60
 H component
  1
  2        1.0000000        0.00000000    0.00000000
 S-H projection
  1
  2       16.4140387      536.51662778    0.00000000
 P-H projection
  1
  2        9.0605561      169.54492465    0.00000000
 D-H projection
  1
  2        8.8318320      142.61559837    0.00000000
 F-H projection
  1
  2        7.0185163       60.39307602    0.00000000
 G-H projection
  1
  2       12.8040884      -60.12998958    0.00000000
 
 There are   118 symmetry adapted cartesian basis functions of A1  symmetry.
 There are    42 symmetry adapted cartesian basis functions of A2  symmetry.
 There are    75 symmetry adapted cartesian basis functions of B1  symmetry.
 There are    73 symmetry adapted cartesian basis functions of B2  symmetry.
 There are    92 symmetry adapted basis functions of A1  symmetry.
 There are    37 symmetry adapted basis functions of A2  symmetry.
 There are    63 symmetry adapted basis functions of B1  symmetry.
 There are    61 symmetry adapted basis functions of B2  symmetry.
   253 basis functions,   523 primitive gaussians,   308 cartesian basis functions
    41 alpha electrons       41 beta electrons
       nuclear repulsion energy       522.7105575146 Hartrees.
 IExCor= 1009 DFT=T Ex+Corr=PBE1PBE ExCW=0 ScaHFX=  0.250000
 ScaDFX=  0.750000  0.750000  1.000000  1.000000 ScalE2=  1.000000  1.000000
 IRadAn=      5 IRanWt=     -1 IRanGd=            0 ICorTp=0 IEmpDi=141
 NAtoms=    5 NActive=    5 NUniq=    3 SFac= 2.78D+00 NAtFMM=   60 NAOKFM=F Big=F
 Integral buffers will be    131072 words long.
 Regular integral format.
 Two-electron integral symmetry is turned on.
 R6Disp:  Grimme-D3(BJ) Dispersion energy=       -0.0056251257 Hartrees.
 Nuclear repulsion after empirical dispersion term =      522.7049323889 Hartrees.
 Leave Link  301 at Thu Jun 23 14:31:25 2022, MaxMem=  1048576000 cpu:               0.4 elap:               0.2
 (Enter /home/pcmt/gaussian/g16.C.01/g16/l302.exe)
 NPDir=0 NMtPBC=     1 NCelOv=     1 NCel=       1 NClECP=     1 NCelD=      1
         NCelK=      1 NCelE2=     1 NClLst=     1 CellRange=     0.0.
 One-electron integrals computed using PRISM.
 One-electron integral symmetry used in STVInt
   4 Symmetry operations used in ECPInt.
 ECPInt:  NShTT=    3160 NPrTT=   10748 LenC2=    3033 LenP2D=    7895.
 LDataN:  DoStor=T MaxTD1= 9 Len=  602
 NBasis=   253 RedAO= T EigKep=  6.37D-04  NBF=    92    37    63    61
 NBsUse=   253 1.00D-06 EigRej= -1.00D+00 NBFU=    92    37    63    61
 Precomputing XC quadrature grid using
 IXCGrd= 4 IRadAn=           5 IRanWt=          -1 IRanGd=           0 AccXCQ= 0.00D+00.
 Defaulting to unpruned grid for atomic number  92.
 Generated NRdTot=       0 NPtTot=           0 NUsed=           0 NTot=          32
 NSgBfM=   302   302   302   302   302 MxSgAt=     5 MxSgA2=     5.
 Leave Link  302 at Thu Jun 23 14:31:26 2022, MaxMem=  1048576000 cpu:               3.7 elap:               1.2
 (Enter /home/pcmt/gaussian/g16.C.01/g16/l303.exe)
 DipDrv:  MaxL=1.
 Leave Link  303 at Thu Jun 23 14:31:26 2022, MaxMem=  1048576000 cpu:               0.2 elap:               0.1
 (Enter /home/pcmt/gaussian/g16.C.01/g16/l308.exe)
 Leave Link  308 at Thu Jun 23 14:31:27 2022, MaxMem=  1048576000 cpu:               0.3 elap:               0.1
 (Enter /home/pcmt/gaussian/g16.C.01/g16/l401.exe)
 ExpMin= 2.34D-02 ExpMax= 6.95D+04 ExpMxC= 1.21D+04 IAcc=3 IRadAn=         5 AccDes= 0.00D+00
 Harris functional with IExCor= 1009 and IRadAn=       5 diagonalized for initial guess.
 HarFok:  IExCor= 1009 AccDes= 0.00D+00 IRadAn=         5 IDoV= 1 UseB2=F ITyADJ=14
 ICtDFT=  3500011 ScaDFX=  1.000000  1.000000  1.000000  1.000000
 Defaulting to unpruned grid for atomic number  92.
 FoFCou: FMM=F IPFlag=           0 FMFlag=      100000 FMFlg1=           0
         NFxFlg=           0 DoJE=T BraDBF=F KetDBF=T FulRan=T
         wScrn=  0.000000 ICntrl=       500 IOpCl=  0 I1Cent=   200000004 NGrid=           0
         NMat0=    1 NMatS0=      1 NMatT0=    0 NMatD0=    1 NMtDS0=    0 NMtDT0=    0
 Petite list used in FoFCou.
 Harris En= -1549.02620370638    
 JPrj=0 DoOrth=F DoCkMO=F.
 Initial guess orbital symmetries:
       Occupied  (B1) (A1) (B2) (A1) (A1) (B1) (A1) (B2) (A1) (B1)
                 (A1) (B1) (B2) (A2) (A1) (B1) (A1) (B2) (A2) (B1)
                 (A1) (A1) (B2) (A1) (B1) (A1) (A1) (B1) (B2) (A2)
                 (B2) (A1) (B1) (A1) (B2) (A1) (B1) (A1) (A2) (B1)
                 (B2)
       Virtual   (A1) (B1) (A1) (B2) (A2) (B1) (A1) (A1) (B2) (B1)
                 (A1) (B1) (B2) (A2) (A1) (B2) (A1) (B2) (A1) (B1)
                 (B2) (A2) (B1) (A1) (A1) (B2) (B1) (A2) (B1) (A1)
                 (B2) (A1) (A2) (B1) (A1) (B2) (B1) (A2) (A1) (B1)
                 (B2) (A1) (A1) (A2) (B2) (B1) (A1) (B2) (A1) (B1)
                 (A1) (A2) (B1) (B2) (A1) (B2) (A1) (B1) (A1) (A1)
                 (B1) (A1) (B1) (B2) (A1) (A2) (B1) (B2) (B1) (B2)
                 (A2) (A1) (A2) (B2) (A2) (A1) (B1) (B2) (A1) (B2)
                 (A1) (A2) (B1) (A1) (B1) (B2) (A1) (B2) (A2) (B1)
                 (A1) (B2) (B1) (A2) (A1) (B1) (A2) (A1) (B2) (B1)
                 (B2) (B1) (A1) (A2) (B1) (A1) (A1) (B2) (B2) (B1)
                 (A1) (A2) (B2) (A2) (B1) (A1) (A2) (A1) (B1) (A1)
                 (B2) (B1) (A1) (A1) (B2) (A2) (B2) (A1) (B1) (A1)
                 (B2) (B2) (B2) (A2) (B1) (A1) (A1) (B1) (A2) (B2)
                 (B1) (A1) (B2) (A2) (A1) (B1) (B2) (A2) (A1) (A1)
                 (B1) (B2) (A1) (B1) (B2) (A2) (B2) (A2) (A1) (A2)
                 (A1) (B2) (B1) (B1) (A1) (A1) (B1) (A1) (B2) (B1)
                 (A1) (B2) (A2) (A1) (B2) (B2) (A1) (A2) (B1) (A1)
                 (B1) (A2) (A1) (B2) (B1) (A1) (A2) (B2) (B1) (A1)
                 (A1) (B1) (A2) (B2) (A1) (A1) (B1) (B2) (A1) (B1)
                 (A1) (A1) (B2) (A1) (B1) (B2) (A1) (A1) (B1) (B2)
                 (A1) (A1)
 The electronic state of the initial guess is 1-A1.
 Leave Link  401 at Thu Jun 23 14:31:27 2022, MaxMem=  1048576000 cpu:               3.1 elap:               0.8
 (Enter /home/pcmt/gaussian/g16.C.01/g16/l502.exe)
 Keep R1 ints in memory in symmetry-blocked form, NReq=646035938.
 FoFCou: FMM=F IPFlag=           0 FMFlag=           0 FMFlg1=           0
         NFxFlg=           0 DoJE=F BraDBF=F KetDBF=F FulRan=T
         wScrn=  0.000000 ICntrl=       600 IOpCl=  0 I1Cent=           0 NGrid=           0
         NMat0=    1 NMatS0=  32131 NMatT0=    0 NMatD0=    1 NMtDS0=    0 NMtDT0=    0
 Petite list used in FoFCou.
 Closed shell SCF:
 Using DIIS extrapolation, IDIIS=  1040.
 NGot=  1048576000 LenX=   918564064 LenY=   918468759
 Requested convergence on RMS density matrix=1.00D-08 within 100 cycles.
 Requested convergence on MAX density matrix=1.00D-06.
 Requested convergence on             energy=1.00D-06.
 No special actions if energy rises.

 Cycle   1  Pass 1  IDiag  1:
 Defaulting to unpruned grid for atomic number  92.
 Defaulting to unpruned grid for atomic number  92.
 Defaulting to unpruned grid for atomic number  92.
 Defaulting to unpruned grid for atomic number  92.
 E= -1546.50053739010    
 DIIS: error= 8.53D-02 at cycle   1 NSaved=   1.
 NSaved= 1 IEnMin= 1 EnMin= -1546.50053739010     IErMin= 1 ErrMin= 8.53D-02
 ErrMax= 8.53D-02  0.00D+00 EMaxC= 1.00D-01 BMatC= 1.77D+00 BMatP= 1.77D+00
 IDIUse=3 WtCom= 1.47D-01 WtEn= 8.53D-01
 Coeff-Com:  0.100D+01
 Coeff-En:   0.100D+01
 Coeff:      0.100D+01
 Gap=     0.218 Goal=   None    Shift=    0.000
 GapD=    0.218 DampG=1.000 DampE=0.250 DampFc=0.2500 IDamp=-1.
 Damping current iteration by 2.50D-01
 RMSDP=1.43D-02 MaxDP=1.25D+00              OVMax= 7.32D-01

 Cycle   2  Pass 1  IDiag  1:
 E= -1544.83693966743     Delta-E=        1.663597722666 Rises=F Damp=T
 DIIS: error= 6.45D-02 at cycle   2 NSaved=   2.
 NSaved= 2 IEnMin= 1 EnMin= -1546.50053739010     IErMin= 2 ErrMin= 6.45D-02
 ErrMax= 6.45D-02  0.00D+00 EMaxC= 1.00D-01 BMatC= 1.56D+00 BMatP= 1.77D+00
 IDIUse=3 WtCom= 3.55D-01 WtEn= 6.45D-01
 Coeff-Com:  0.480D+00 0.520D+00
 Coeff-En:   0.702D+00 0.298D+00
 Coeff:      0.623D+00 0.377D+00
 Gap=    -0.114 Goal=   None    Shift=    0.000
 RMSDP=3.55D-03 MaxDP=1.37D-01 DE= 1.66D+00 OVMax= 8.10D-01

 Cycle   3  Pass 1  IDiag  1:
 E= -1546.48648815941     Delta-E=       -1.649548491981 Rises=F Damp=F
 DIIS: error= 1.09D-01 at cycle   3 NSaved=   3.
 NSaved= 3 IEnMin= 1 EnMin= -1546.50053739010     IErMin= 2 ErrMin= 6.45D-02
 ErrMax= 1.09D-01  0.00D+00 EMaxC= 1.00D-01 BMatC= 1.76D+00 BMatP= 1.56D+00
 IDIUse=2 WtCom= 0.00D+00 WtEn= 1.00D+00
 Coeff-En:   0.502D+00 0.000D+00 0.498D+00
 Coeff:      0.502D+00 0.000D+00 0.498D+00
 Gap=     0.158 Goal=   None    Shift=    0.000
 RMSDP=4.26D-03 MaxDP=1.47D-01 DE=-1.65D+00 OVMax= 5.80D-01

 Cycle   4  Pass 1  IDiag  1:
 E= -1544.63398049247     Delta-E=        1.852507666947 Rises=F Damp=F
 DIIS: error= 1.94D-01 at cycle   4 NSaved=   4.
 NSaved= 4 IEnMin= 1 EnMin= -1546.50053739010     IErMin= 2 ErrMin= 6.45D-02
 ErrMax= 1.94D-01  0.00D+00 EMaxC= 1.00D-01 BMatC= 5.87D+00 BMatP= 1.56D+00
 IDIUse=2 WtCom= 0.00D+00 WtEn= 1.00D+00
 EnCoef did     3 forward-backward iterations
 Coeff-En:   0.495D+00 0.000D+00 0.406D+00 0.990D-01
 Coeff:      0.495D+00 0.000D+00 0.406D+00 0.990D-01
 Gap=     0.066 Goal=   None    Shift=    0.000
 RMSDP=3.04D-03 MaxDP=1.13D-01 DE= 1.85D+00 OVMax= 5.21D-01

 Cycle   5  Pass 1  IDiag  1:
 E= -1547.63398513263     Delta-E=       -3.000004640162 Rises=F Damp=F
 DIIS: error= 4.16D-03 at cycle   5 NSaved=   5.
 NSaved= 5 IEnMin= 5 EnMin= -1547.63398513263     IErMin= 5 ErrMin= 4.16D-03
 ErrMax= 4.16D-03  0.00D+00 EMaxC= 1.00D-01 BMatC= 7.10D-03 BMatP= 1.56D+00
 IDIUse=3 WtCom= 9.58D-01 WtEn= 4.16D-02
 Coeff-Com:  0.268D-01-0.249D-01 0.467D-01-0.141D-01 0.965D+00
 Coeff-En:   0.000D+00 0.000D+00 0.000D+00 0.000D+00 0.100D+01
 Coeff:      0.257D-01-0.238D-01 0.448D-01-0.135D-01 0.967D+00
 Gap=     0.158 Goal=   None    Shift=    0.000
 RMSDP=3.11D-04 MaxDP=2.05D-02 DE=-3.00D+00 OVMax= 2.67D-02

 Cycle   6  Pass 1  IDiag  1:
 E= -1547.63386332558     Delta-E=        0.000121807049 Rises=F Damp=F
 DIIS: error= 8.61D-03 at cycle   6 NSaved=   6.
 NSaved= 6 IEnMin= 5 EnMin= -1547.63398513263     IErMin= 5 ErrMin= 4.16D-03
 ErrMax= 8.61D-03  0.00D+00 EMaxC= 1.00D-01 BMatC= 8.37D-03 BMatP= 7.10D-03
 IDIUse=3 WtCom= 9.58D-01 WtEn= 4.16D-02
 Coeff-Com:  0.144D-01-0.197D-01-0.154D-01-0.113D-01 0.278D+00 0.754D+00
 Coeff-En:   0.000D+00 0.000D+00 0.000D+00 0.000D+00 0.512D+00 0.488D+00
 Coeff:      0.138D-01-0.188D-01-0.148D-01-0.109D-01 0.288D+00 0.743D+00
 Gap=     0.163 Goal=   None    Shift=    0.000
 RMSDP=1.27D-04 MaxDP=8.44D-03 DE= 1.22D-04 OVMax= 1.37D-02

 Cycle   7  Pass 1  IDiag  1:
 E= -1547.63857718240     Delta-E=       -0.004713856814 Rises=F Damp=F
 DIIS: error= 2.60D-03 at cycle   7 NSaved=   7.
 NSaved= 7 IEnMin= 7 EnMin= -1547.63857718240     IErMin= 7 ErrMin= 2.60D-03
 ErrMax= 2.60D-03  0.00D+00 EMaxC= 1.00D-01 BMatC= 1.14D-03 BMatP= 7.10D-03
 IDIUse=3 WtCom= 9.74D-01 WtEn= 2.60D-02
 Coeff-Com:  0.830D-02-0.637D-02-0.152D-01-0.475D-02 0.164D-01 0.166D+00
 Coeff-Com:  0.836D+00
 Coeff-En:   0.000D+00 0.000D+00 0.000D+00 0.000D+00 0.000D+00 0.000D+00
 Coeff-En:   0.100D+01
 Coeff:      0.809D-02-0.620D-02-0.148D-01-0.462D-02 0.159D-01 0.161D+00
 Coeff:      0.840D+00
 Gap=     0.165 Goal=   None    Shift=    0.000
 RMSDP=5.05D-05 MaxDP=2.20D-03 DE=-4.71D-03 OVMax= 5.21D-03

 Cycle   8  Pass 1  IDiag  1:
 E= -1547.63920514538     Delta-E=       -0.000627962986 Rises=F Damp=F
 DIIS: error= 8.49D-04 at cycle   8 NSaved=   8.
 NSaved= 8 IEnMin= 8 EnMin= -1547.63920514538     IErMin= 8 ErrMin= 8.49D-04
 ErrMax= 8.49D-04  0.00D+00 EMaxC= 1.00D-01 BMatC= 1.42D-04 BMatP= 1.14D-03
 IDIUse=3 WtCom= 9.92D-01 WtEn= 8.49D-03
 Coeff-Com:  0.298D-02-0.784D-03-0.604D-02-0.747D-03-0.380D-01-0.849D-01
 Coeff-Com:  0.461D+00 0.666D+00
 Coeff-En:   0.000D+00 0.000D+00 0.000D+00 0.000D+00 0.000D+00 0.000D+00
 Coeff-En:   0.000D+00 0.100D+01
 Coeff:      0.296D-02-0.778D-03-0.599D-02-0.740D-03-0.377D-01-0.842D-01
 Coeff:      0.457D+00 0.669D+00
 Gap=     0.165 Goal=   None    Shift=    0.000
 RMSDP=2.09D-05 MaxDP=7.12D-04 DE=-6.28D-04 OVMax= 1.91D-03

 Cycle   9  Pass 1  IDiag  1:
 E= -1547.63928249361     Delta-E=       -0.000077348225 Rises=F Damp=F
 DIIS: error= 1.48D-04 at cycle   9 NSaved=   9.
 NSaved= 9 IEnMin= 9 EnMin= -1547.63928249361     IErMin= 9 ErrMin= 1.48D-04
 ErrMax= 1.48D-04  0.00D+00 EMaxC= 1.00D-01 BMatC= 4.19D-06 BMatP= 1.42D-04
 IDIUse=3 WtCom= 9.99D-01 WtEn= 1.48D-03
 Coeff-Com:  0.444D-03 0.622D-04-0.924D-03 0.236D-04-0.105D-01-0.441D-01
 Coeff-Com:  0.770D-01 0.229D+00 0.749D+00
 Coeff-En:   0.000D+00 0.000D+00 0.000D+00 0.000D+00 0.000D+00 0.000D+00
 Coeff-En:   0.000D+00 0.000D+00 0.100D+01
 Coeff:      0.443D-03 0.621D-04-0.922D-03 0.236D-04-0.105D-01-0.440D-01
 Coeff:      0.769D-01 0.229D+00 0.749D+00
 Gap=     0.165 Goal=   None    Shift=    0.000
 RMSDP=4.64D-06 MaxDP=2.19D-04 DE=-7.73D-05 OVMax= 4.48D-04

 Cycle  10  Pass 1  IDiag  1:
 E= -1547.63928469170     Delta-E=       -0.000002198094 Rises=F Damp=F
 DIIS: error= 1.66D-05 at cycle  10 NSaved=  10.
 NSaved=10 IEnMin=10 EnMin= -1547.63928469170     IErMin=10 ErrMin= 1.66D-05
 ErrMax= 1.66D-05  0.00D+00 EMaxC= 1.00D-01 BMatC= 1.06D-07 BMatP= 4.19D-06
 IDIUse=1 WtCom= 1.00D+00 WtEn= 0.00D+00
 Coeff-Com: -0.270D-04 0.250D-04 0.664D-04 0.406D-05 0.559D-03-0.811D-02
 Coeff-Com: -0.107D-02 0.414D-01 0.207D+00 0.760D+00
 Coeff:     -0.270D-04 0.250D-04 0.664D-04 0.406D-05 0.559D-03-0.811D-02
 Coeff:     -0.107D-02 0.414D-01 0.207D+00 0.760D+00
 Gap=     0.165 Goal=   None    Shift=    0.000
 RMSDP=1.31D-06 MaxDP=7.59D-05 DE=-2.20D-06 OVMax= 9.95D-05

 Cycle  11  Pass 1  IDiag  1:
 E= -1547.63928471656     Delta-E=       -0.000000024859 Rises=F Damp=F
 DIIS: error= 1.70D-05 at cycle  11 NSaved=  11.
 NSaved=11 IEnMin=11 EnMin= -1547.63928471656     IErMin=10 ErrMin= 1.66D-05
 ErrMax= 1.70D-05  0.00D+00 EMaxC= 1.00D-01 BMatC= 5.60D-08 BMatP= 1.06D-07
 IDIUse=1 WtCom= 1.00D+00 WtEn= 0.00D+00
 Coeff-Com: -0.216D-04 0.226D-04 0.608D-05-0.291D-06 0.649D-03 0.408D-03
 Coeff-Com:  0.102D-02 0.356D-02 0.114D-01 0.205D+00 0.778D+00
 Coeff:     -0.216D-04 0.226D-04 0.608D-05-0.291D-06 0.649D-03 0.408D-03
 Coeff:      0.102D-02 0.356D-02 0.114D-01 0.205D+00 0.778D+00
 Gap=     0.165 Goal=   None    Shift=    0.000
 RMSDP=3.91D-07 MaxDP=2.30D-05 DE=-2.49D-08 OVMax= 4.06D-05

 Cycle  12  Pass 1  IDiag  1:
 E= -1547.63928474910     Delta-E=       -0.000000032536 Rises=F Damp=F
 DIIS: error= 7.77D-06 at cycle  12 NSaved=  12.
 NSaved=12 IEnMin=12 EnMin= -1547.63928474910     IErMin=12 ErrMin= 7.77D-06
 ErrMax= 7.77D-06  0.00D+00 EMaxC= 1.00D-01 BMatC= 1.01D-08 BMatP= 5.60D-08
 IDIUse=1 WtCom= 1.00D+00 WtEn= 0.00D+00
 Coeff-Com: -0.120D-04 0.965D-05-0.757D-05-0.198D-05 0.323D-03 0.106D-02
 Coeff-Com:  0.937D-03-0.131D-02-0.646D-02 0.266D-01 0.213D+00 0.766D+00
 Coeff:     -0.120D-04 0.965D-05-0.757D-05-0.198D-05 0.323D-03 0.106D-02
 Coeff:      0.937D-03-0.131D-02-0.646D-02 0.266D-01 0.213D+00 0.766D+00
 Gap=     0.165 Goal=   None    Shift=    0.000
 RMSDP=1.59D-07 MaxDP=1.22D-05 DE=-3.25D-08 OVMax= 1.32D-05

 Cycle  13  Pass 1  IDiag  1:
 E= -1547.63928475343     Delta-E=       -0.000000004337 Rises=F Damp=F
 DIIS: error= 4.13D-06 at cycle  13 NSaved=  13.
 NSaved=13 IEnMin=13 EnMin= -1547.63928475343     IErMin=13 ErrMin= 4.13D-06
 ErrMax= 4.13D-06  0.00D+00 EMaxC= 1.00D-01 BMatC= 2.54D-09 BMatP= 1.01D-08
 IDIUse=1 WtCom= 1.00D+00 WtEn= 0.00D+00
 Coeff-Com: -0.102D-06 0.713D-06-0.132D-04-0.453D-06-0.213D-04 0.408D-03
 Coeff-Com:  0.499D-03-0.299D-03-0.203D-02-0.336D-01-0.132D+00 0.151D+00
 Coeff-Com:  0.102D+01
 Coeff:     -0.102D-06 0.713D-06-0.132D-04-0.453D-06-0.213D-04 0.408D-03
 Coeff:      0.499D-03-0.299D-03-0.203D-02-0.336D-01-0.132D+00 0.151D+00
 Coeff:      0.102D+01
 Gap=     0.165 Goal=   None    Shift=    0.000
 RMSDP=1.25D-07 MaxDP=1.05D-05 DE=-4.34D-09 OVMax= 1.09D-05

 Cycle  14  Pass 1  IDiag  1:
 E= -1547.63928475517     Delta-E=       -0.000000001735 Rises=F Damp=F
 DIIS: error= 1.86D-07 at cycle  14 NSaved=  14.
 NSaved=14 IEnMin=14 EnMin= -1547.63928475517     IErMin=14 ErrMin= 1.86D-07
 ErrMax= 1.86D-07  0.00D+00 EMaxC= 1.00D-01 BMatC= 5.56D-12 BMatP= 2.54D-09
 IDIUse=1 WtCom= 1.00D+00 WtEn= 0.00D+00
 Coeff-Com:  0.521D-06 0.625D-07-0.716D-06 0.127D-06-0.275D-04-0.926D-04
 Coeff-Com: -0.921D-04 0.251D-03 0.103D-02 0.770D-03-0.117D-01-0.762D-01
 Coeff-Com:  0.443D-01 0.104D+01
 Coeff:      0.521D-06 0.625D-07-0.716D-06 0.127D-06-0.275D-04-0.926D-04
 Coeff:     -0.921D-04 0.251D-03 0.103D-02 0.770D-03-0.117D-01-0.762D-01
 Coeff:      0.443D-01 0.104D+01
 Gap=     0.165 Goal=   None    Shift=    0.000
 RMSDP=1.40D-08 MaxDP=5.82D-07 DE=-1.74D-09 OVMax= 1.93D-06

 Cycle  15  Pass 1  IDiag  1:
 E= -1547.63928475517     Delta-E=       -0.000000000002 Rises=F Damp=F
 DIIS: error= 3.61D-08 at cycle  15 NSaved=  15.
 NSaved=15 IEnMin=15 EnMin= -1547.63928475517     IErMin=15 ErrMin= 3.61D-08
 ErrMax= 3.61D-08  0.00D+00 EMaxC= 1.00D-01 BMatC= 2.48D-13 BMatP= 5.56D-12
 IDIUse=1 WtCom= 1.00D+00 WtEn= 0.00D+00
 Coeff-Com:  0.191D-07-0.749D-10 0.230D-06 0.465D-07-0.584D-05-0.255D-04
 Coeff-Com: -0.174D-04 0.424D-04 0.260D-03 0.122D-02 0.154D-02-0.128D-01
 Coeff-Com: -0.209D-01 0.168D+00 0.862D+00
 Coeff:      0.191D-07-0.749D-10 0.230D-06 0.465D-07-0.584D-05-0.255D-04
 Coeff:     -0.174D-04 0.424D-04 0.260D-03 0.122D-02 0.154D-02-0.128D-01
 Coeff:     -0.209D-01 0.168D+00 0.862D+00
 Gap=     0.165 Goal=   None    Shift=    0.000
 RMSDP=2.33D-09 MaxDP=9.22D-08 DE=-1.82D-12 OVMax= 2.68D-07

 SCF Done:  E(RPBE1PBE) =  -1547.63928476     A.U. after   15 cycles
            NFock= 15  Conv=0.23D-08     -V/T= 2.2703
 KE= 1.218336815199D+03 PE=-4.559520328944D+03 EE= 1.270839296601D+03
 Leave Link  502 at Thu Jun 23 14:34:13 2022, MaxMem=  1048576000 cpu:             660.9 elap:             165.7
 (Enter /home/pcmt/gaussian/g16.C.01/g16/l801.exe)
 DoSCS=F DFT=T ScalE2(SS,OS)=  1.000000  1.000000
 Range of M.O.s used for correlation:    22   253
 NBasis=   253 NAE=    41 NBE=    41 NFC=    21 NFV=     0
 NROrb=    232 NOA=    20 NOB=    20 NVA=   212 NVB=   212

 **** Warning!!: The largest alpha MO coefficient is  0.11472559D+02

 Leave Link  801 at Thu Jun 23 14:34:13 2022, MaxMem=  1048576000 cpu:               0.1 elap:               0.1
 (Enter /home/pcmt/gaussian/g16.C.01/g16/l914.exe)
 RHF ground state
 Keep R1, R2, and R3 ints in memory in symmetry-blocked form, NReq=646036278.
 FoFCou: FMM=F IPFlag=           0 FMFlag=           0 FMFlg1=           0
         NFxFlg=           0 DoJE=F BraDBF=F KetDBF=F FulRan=T
         wScrn=  0.000000 ICntrl=       600 IOpCl=  0 I1Cent=           0 NGrid=           0
         NMat0=    1 NMatS0=  32131 NMatT0=    0 NMatD0=    1 NMtDS0=    0 NMtDT0=    0
 Petite list used in FoFCou.
 MDV=  1048576000 DFT=T DoStab=F Mixed=T DoRPA=T DoScal=F NonHer=T
 Making orbital integer symmetry assigments:
 Orbital symmetries:
       Occupied  (B1) (A1) (B2) (A1) (A1) (B1) (A1) (B1) (A1) (B2)
                 (B1) (A1) (A1) (B1) (B2) (A2) (A1) (B1) (A2) (B2)
                 (A1) (A1) (B2) (B1) (A1) (A1) (A1) (B1) (B2) (A2)
                 (B2) (A1) (B1) (A1) (B2) (A1) (B1) (A1) (B1) (A2)
                 (B2)
       Virtual   (A1) (B1) (B2) (A2) (A1) (B1) (A1) (B1) (A1) (B2)
                 (A1) (B2) (B1) (A1) (A2) (B2) (A1) (B2) (A1) (B1)
                 (A2) (B2) (B1) (A1) (A1) (B2) (B1) (A2) (A1) (B1)
                 (A2) (B2) (A1) (B1) (A1) (B2) (B1) (A2) (A1) (B1)
                 (B2) (A1) (A1) (B1) (A1) (B2) (A2) (B2) (A1) (B1)
                 (A1) (B1) (A2) (B2) (A1) (B2) (A1) (B1) (A1) (A1)
                 (B1) (B1) (B2) (A1) (A2) (A1) (B1) (B2) (A1) (B1)
                 (B2) (A2) (B2) (A2) (A1) (A2) (A2) (B2) (A1) (B1)
                 (A1) (B2) (B1) (B2) (A1) (B1) (A1) (B2) (B1) (A2)
                 (A1) (B2) (A2) (B1) (B1) (A2) (A1) (A1) (B2) (B1)
                 (B2) (B1) (A1) (B1) (A2) (A1) (A1) (B2) (B2) (A1)
                 (B1) (A2) (B1) (A1) (A2) (A1) (B1) (B2) (B2) (A2)
                 (A1) (A1) (B1) (B2) (A2) (A1) (B1) (A1) (B2) (A1)
                 (B2) (B2) (B2) (A2) (B1) (A1) (B1) (A1) (A1) (B2)
                 (A2) (B1) (A2) (B2) (B1) (A1) (A1) (B2) (A2) (A1)
                 (B2) (B1) (A1) (A1) (B1) (A1) (B1) (A2) (B2) (B2)
                 (A2) (B2) (B1) (A1) (A2) (A1) (B1) (B2) (A1) (B1)
                 (A1) (B2) (A2) (A1) (B2) (A1) (B2) (A2) (B1) (A1)
                 (B1) (A1) (A2) (B2) (B1) (A1) (A2) (B2) (B1) (A1)
                 (A1) (B1) (A2) (B2) (A1) (A1) (B1) (B2) (A1) (B1)
                 (A1) (A1) (B2) (A1) (B1) (B2) (A1) (A1) (B1) (B2)
                 (A1) (A1)
    16 initial guesses have been made.
 Convergence on wavefunction:    0.000001000000000
 Davidson Disk Diagonalization:  ConvIn= 1.00D-06 SkipCon=T Conv= 1.00D-06.
 Max sub-space:  2000 roots to seek:    16 dimension of matrix:         8480
 Iteration     1 Dimension    16 NMult     0 NNew     16
 CISAX will form    16 AO SS matrices at one time.
 NMat=    16 NSing=     0 JSym2X=-1.
 Defaulting to unpruned grid for atomic number  92.
 Defaulting to unpruned grid for atomic number  92.
 Defaulting to unpruned grid for atomic number  92.
 Defaulting to unpruned grid for atomic number  92.
 New state      1 was old state      2
 New state      2 was old state      1
 New state      3 was old state      4
 New state      4 was old state      3
 Excitation Energies [eV] at current iteration:
 Root      1 :     2.779893427375509
 Root      2 :     2.788240821440764
 Root      3 :     2.882191423014204
 Root      4 :     2.884694081862949
 Root      5 :     3.144706569462836
 Root      6 :     3.156246064506724
 Root      7 :     3.236538831741785
 Root      8 :     3.291785766514971
 Root      9 :     3.310413567316495
 Root     10 :     3.353821010907046
 Root     11 :     3.532681983095732
 Root     12 :     3.539385018460994
 Root     13 :     3.613268731444955
 Root     14 :     3.626394233204728
 Root     15 :     3.801382444383538
 Root     16 :     3.821647492951805
 Iteration     2 Dimension    24 NMult    16 NNew      8
 CISAX will form     8 AO SS matrices at one time.
 NMat=     8 NSing=     0 JSym2X=-1.
 New state      1 was old state      4
 Root      1 not converged, maximum delta is    0.496629386779992
 New state      2 was old state      3
 Root      2 not converged, maximum delta is    0.460350759401699
 New state      3 was old state      2
 Root      3 not converged, maximum delta is    0.394725824216481
 New state      4 was old state      1
 Root      4 not converged, maximum delta is    0.370554734282047
 Excitation Energies [eV] at current iteration:
 Root      1 :     2.197910002363090   Change is   -0.686784079499859
 Root      2 :     2.270832230189243   Change is   -0.611359192824962
 Root      3 :     2.306224218776975   Change is   -0.482016602663789
 Root      4 :     2.318188225109303   Change is   -0.461705202266206
 Iteration     3 Dimension    32 NMult    24 NNew      8
 CISAX will form     8 AO SS matrices at one time.
 NMat=     8 NSing=     0 JSym2X=-1.
 Root      1 not converged, maximum delta is    0.033514681859348
 Root      2 not converged, maximum delta is    0.044986166524433
 Root      3 not converged, maximum delta is    0.052519220142642
 Root      4 not converged, maximum delta is    0.066727123409061
 Excitation Energies [eV] at current iteration:
 Root      1 :     2.152695211387124   Change is   -0.045214790975966
 Root      2 :     2.217201580813891   Change is   -0.053630649375351
 Root      3 :     2.255335313010030   Change is   -0.050888905766945
 Root      4 :     2.260273946745519   Change is   -0.057914278363784
 Iteration     4 Dimension    40 NMult    32 NNew      8
 CISAX will form     8 AO SS matrices at one time.
 NMat=     8 NSing=     0 JSym2X=-1.
 Root      1 not converged, maximum delta is    0.008770227734718
 Root      2 not converged, maximum delta is    0.008089031257933
 Root      3 not converged, maximum delta is    0.002915914021855
 Root      4 not converged, maximum delta is    0.003572212759631
 Excitation Energies [eV] at current iteration:
 Root      1 :     2.151145957221464   Change is   -0.001549254165660
 Root      2 :     2.215496010785124   Change is   -0.001705570028767
 Root      3 :     2.253839629210144   Change is   -0.001495683799886
 Root      4 :     2.258264936424793   Change is   -0.002009010320725
 Iteration     5 Dimension    48 NMult    40 NNew      8
 CISAX will form     8 AO SS matrices at one time.
 NMat=     8 NSing=     0 JSym2X=-1.
 Root      1 not converged, maximum delta is    0.001658616770765
 Root      2 not converged, maximum delta is    0.001664036006471
 Root      3 not converged, maximum delta is    0.001244843861618
 Root      4 not converged, maximum delta is    0.001197678643746
 Excitation Energies [eV] at current iteration:
 Root      1 :     2.151080602522735   Change is   -0.000065354698729
 Root      2 :     2.215405267426549   Change is   -0.000090743358575
 Root      3 :     2.253783420411723   Change is   -0.000056208798422
 Root      4 :     2.258200887380569   Change is   -0.000064049044225
 Iteration     6 Dimension    56 NMult    48 NNew      8
 CISAX will form     8 AO SS matrices at one time.
 NMat=     8 NSing=     0 JSym2X=-1.
 Root      1 not converged, maximum delta is    0.000575262489022
 Root      2 not converged, maximum delta is    0.000805716036296
 Root      3 not converged, maximum delta is    0.000701189514908
 Root      4 not converged, maximum delta is    0.000373568517395
 Excitation Energies [eV] at current iteration:
 Root      1 :     2.151074962196385   Change is   -0.000005640326351
 Root      2 :     2.215397739983471   Change is   -0.000007527443078
 Root      3 :     2.253775764808197   Change is   -0.000007655603525
 Root      4 :     2.258197106003713   Change is   -0.000003781376856
 Iteration     7 Dimension    64 NMult    56 NNew      8
 CISAX will form     8 AO SS matrices at one time.
 NMat=     8 NSing=     0 JSym2X=-1.
 Root      1 not converged, maximum delta is    0.000070678892208
 Root      2 not converged, maximum delta is    0.000063121088852
 Root      3 not converged, maximum delta is    0.000116253154986
 Root      4 not converged, maximum delta is    0.000160929706947
 Excitation Energies [eV] at current iteration:
 Root      1 :     2.151074757931957   Change is   -0.000000204264427
 Root      2 :     2.215397496331732   Change is   -0.000000243651739
 Root      3 :     2.253775186790935   Change is   -0.000000578017262
 Root      4 :     2.258196805876999   Change is   -0.000000300126714
 Iteration     8 Dimension    72 NMult    64 NNew      8
 CISAX will form     8 AO SS matrices at one time.
 NMat=     8 NSing=     0 JSym2X=-1.
 Root      1 not converged, maximum delta is    0.000016226478414
 Root      2 not converged, maximum delta is    0.000011887198830
 Root      3 not converged, maximum delta is    0.000027834420629
 Root      4 not converged, maximum delta is    0.000031309128544
 Excitation Energies [eV] at current iteration:
 Root      1 :     2.151074747661764   Change is   -0.000000010270194
 Root      2 :     2.215397486235158   Change is   -0.000000010096574
 Root      3 :     2.253775160004369   Change is   -0.000000026786566
 Root      4 :     2.258196774664746   Change is   -0.000000031212253
 Iteration     9 Dimension    80 NMult    72 NNew      8
 CISAX will form     8 AO SS matrices at one time.
 NMat=     8 NSing=     0 JSym2X=-1.
 Root      1 not converged, maximum delta is    0.000003778448432
 Root      2 not converged, maximum delta is    0.000001853329461
 Root      3 not converged, maximum delta is    0.000004858264839
 Root      4 not converged, maximum delta is    0.000007638822871
 Excitation Energies [eV] at current iteration:
 Root      1 :     2.151074746923603   Change is   -0.000000000738160
 Root      2 :     2.215397485858036   Change is   -0.000000000377122
 Root      3 :     2.253775158912257   Change is   -0.000000001092112
 Root      4 :     2.258196773445502   Change is   -0.000000001219244
 Iteration    10 Dimension    88 NMult    80 NNew      8
 CISAX will form     8 AO SS matrices at one time.
 NMat=     8 NSing=     0 JSym2X=-1.
 Root      1 not converged, maximum delta is    0.000001134235252
 Root      2 has converged.
 Root      3 not converged, maximum delta is    0.000001160367658
 Root      4 has converged.
 Excitation Energies [eV] at current iteration:
 Root      1 :     2.151074746884469   Change is   -0.000000000039134
 Root      2 :     2.215397485847237   Change is   -0.000000000010798
 Root      3 :     2.253775158857070   Change is   -0.000000000055187
 Root      4 :     2.258196773405930   Change is   -0.000000000039571
 Iteration    11 Dimension    92 NMult    88 NNew      4
 CISAX will form     4 AO SS matrices at one time.
 NMat=     4 NSing=     0 JSym2X=-1.
 Root      1 has converged.
 Root      2 has converged.
 Root      3 has converged.
 Root      4 has converged.
 Excitation Energies [eV] at current iteration:
 Root      1 :     2.151074746882100   Change is   -0.000000000002369
 Root      2 :     2.215397485847237   Change is    0.000000000000000
 Root      3 :     2.253775158853860   Change is   -0.000000000003210
 Root      4 :     2.258196773405858   Change is   -0.000000000000073
 Convergence achieved on expansion vectors.
 ***********************************************************************
 Excited states from <AA,BB:AA,BB> singles matrix:
 ***********************************************************************
 
 1PDM for each excited state written to RWF  633
 Ground to excited state transition densities written to RWF  633
 Ground to excited state transition electric dipole moments (Au):
       state          X           Y           Z        Dip. S.      Osc.
         1        -0.0000     -0.0000     -0.0000      0.0000      0.0000
         2         0.0000     -0.0000     -0.0000      0.0000      0.0000
         3        -0.0000      0.0000     -0.0000      0.0000      0.0000
         4        -0.0000     -0.0000     -0.0000      0.0000      0.0000
 Ground to excited state transition velocity dipole moments (Au):
       state          X           Y           Z        Dip. S.      Osc.
         1        -0.0000     -0.0000      0.0000      0.0000      0.0000
         2         0.0000      0.0000     -0.0000      0.0000      0.0000
         3        -0.0000      0.0000     -0.0000      0.0000      0.0000
         4         0.0000     -0.0000      0.0000      0.0000      0.0000
 Ground to excited state transition magnetic dipole moments (Au):
       state          X           Y           Z
         1         0.0000      0.0000      0.0000
         2         0.0000      0.0000     -0.0000
         3         0.0000      0.0000     -0.0000
         4        -0.0000      0.0000      0.0000
 Ground to excited state transition velocity quadrupole moments (Au):
       state          XX          YY          ZZ          XY          XZ          YZ
         1         0.0000      0.0000      0.0000      0.0000      0.0000     -0.0000
         2        -0.0000     -0.0000     -0.0000      0.0000      0.0000     -0.0000
         3         0.0000     -0.0000      0.0000     -0.0000      0.0000     -0.0000
         4        -0.0000      0.0000      0.0000      0.0000     -0.0000     -0.0000
 <0|del|b> * <b|rxdel|0> + <0|del|b> * <b|delr+rdel|0>
 Rotatory Strengths (R) in cgs (10**-40 erg-esu-cm/Gauss)
       state          XX          YY          ZZ    R(velocity)    E-M Angle
         1        -0.0000     -0.0000     -0.0000     -0.0000       90.00
         2        -0.0000      0.0000      0.0000      0.0000       90.00
         3         0.0000     -0.0000      0.0000      0.0000       90.00
         4         0.0000     -0.0000      0.0000      0.0000       90.00
 1/2[<0|r|b>*<b|rxdel|0> + (<0|rxdel|b>*<b|r|0>)*]
 Rotatory Strengths (R) in cgs (10**-40 erg-esu-cm/Gauss)
       state          XX          YY          ZZ     R(length)
         1         0.0000      0.0000      0.0000      0.0000
         2        -0.0000      0.0000     -0.0000     -0.0000
         3         0.0000     -0.0000     -0.0000      0.0000
         4        -0.0000      0.0000      0.0000      0.0000
  1/2[<0|del|b>*<b|r|0> + (<0|r|b>*<b|del|0>)*] (Au)
       state          X           Y           Z        Dip. S.   Osc.(frdel)
         1         0.0000      0.0000     -0.0000     -0.0000     -0.0000
         2         0.0000     -0.0000      0.0000     -0.0000     -0.0000
         3         0.0000      0.0000      0.0000     -0.0000     -0.0000
         4        -0.0000      0.0000     -0.0000      0.0000      0.0000

 Excitation energies and oscillator strengths:
 
 Excited State   1:      Triplet-A1     2.1511 eV  576.38 nm  f=0.0000  <S**2>=2.000
      35 -> 44        -0.45702
      41 -> 44         0.54020
 
 Excited State   2:      Triplet-B1     2.2154 eV  559.65 nm  f=0.0000  <S**2>=2.000
      35 -> 45        -0.43837
      41 -> 45         0.55505
 This state for optimization and/or second-order correction.
 Total Energy, E(TD-HF/TD-DFT) =  -1547.55787040    
 Copying the excited state density for this state as the 1-particle RhoCI density.
 
 Excited State   3:      Triplet-B2     2.2538 eV  550.12 nm  f=0.0000  <S**2>=2.000
      35 -> 42        -0.40514
      41 -> 42         0.57546
 
 Excited State   4:      Triplet-A2     2.2582 eV  549.04 nm  f=0.0000  <S**2>=2.000
      35 -> 43        -0.39771
      41 -> 43         0.58106
 SavETr:  write IOETrn=   770 NScale= 10 NData=  16 NLR=1 NState=    4 LETran=      82.
 The selected state is a triplet.
 CISGrd: IGrad=2 NXY=2 DFT=T
 CISAX will form     1 AO SS matrices at one time.
 NMat=     1 NSing=     0 JSym2X=-1.
 Leave Link  914 at Thu Jun 23 14:38:52 2022, MaxMem=  1048576000 cpu:            1112.4 elap:             278.6
 (Enter /home/pcmt/gaussian/g16.C.01/g16/l1002.exe)
 Minotr:  Closed shell wavefunction.
          Computing CIS/TDA/TD derivatives.
          Using Z-Vector for PSCF gradient.
          Skipping F1 and S1 gradient terms here.
          IDoAtm=11111
          Frozen-core window.
          Direct CPHF calculation.
          Differentiating once with respect to electric field.
                with respect to dipole field.
          Differentiating once with respect to nuclear coordinates.
          Requested convergence is 1.0D-10 RMS, and 1.0D-09 maximum.
          NewPWx=F KeepS1=T KeepF1=T KeepIn=T MapXYZ=F SortEE=F KeepMc=T.
 Keep R1 ints in memory in symmetry-blocked form, NReq=646037315.
 FoFCou: FMM=F IPFlag=           0 FMFlag=           0 FMFlg1=           0
         NFxFlg=           0 DoJE=F BraDBF=F KetDBF=F FulRan=T
         wScrn=  0.000000 ICntrl=       600 IOpCl=  0 I1Cent=           0 NGrid=           0
         NMat0=    1 NMatS0=  32131 NMatT0=    0 NMatD0=    1 NMtDS0=    0 NMtDT0=    0
 Petite list used in FoFCou.
 Two-electron integral symmetry used by symmetrizing perturbed Fock matrices.
          MDV=    1048576000 using IRadAn=       5.
          Solving linear equations separately, MaxMat=       0.
          There are     1 degrees of freedom in the 1st order CPHF.  IDoFFX=0 NUNeed=     1.
 Defaulting to unpruned grid for atomic number  92.
 Defaulting to unpruned grid for atomic number  92.
 Defaulting to unpruned grid for atomic number  92.
 Defaulting to unpruned grid for atomic number  92.
 LinEq1:  Iter=  0 NonCon=     1 RMS=2.53D-02 Max=9.27D-01 NDo=     1
 AX will form     1 AO Fock derivatives at one time.
 LinEq1:  Iter=  1 NonCon=     1 RMS=1.11D-02 Max=4.25D-01 NDo=     1
 LinEq1:  Iter=  2 NonCon=     1 RMS=9.18D-03 Max=3.36D-01 NDo=     1
 LinEq1:  Iter=  3 NonCon=     1 RMS=3.44D-03 Max=6.89D-02 NDo=     1
 LinEq1:  Iter=  4 NonCon=     1 RMS=1.47D-03 Max=3.95D-02 NDo=     1
 LinEq1:  Iter=  5 NonCon=     1 RMS=6.56D-04 Max=2.08D-02 NDo=     1
 LinEq1:  Iter=  6 NonCon=     1 RMS=3.31D-04 Max=8.69D-03 NDo=     1
 LinEq1:  Iter=  7 NonCon=     1 RMS=1.59D-04 Max=4.13D-03 NDo=     1
 LinEq1:  Iter=  8 NonCon=     1 RMS=6.01D-05 Max=2.64D-03 NDo=     1
 LinEq1:  Iter=  9 NonCon=     1 RMS=1.47D-05 Max=3.51D-04 NDo=     1
 LinEq1:  Iter= 10 NonCon=     1 RMS=5.97D-06 Max=1.56D-04 NDo=     1
 LinEq1:  Iter= 11 NonCon=     1 RMS=1.94D-06 Max=5.45D-05 NDo=     1
 LinEq1:  Iter= 12 NonCon=     1 RMS=4.97D-07 Max=1.04D-05 NDo=     1
 LinEq1:  Iter= 13 NonCon=     1 RMS=1.63D-07 Max=5.35D-06 NDo=     1
 LinEq1:  Iter= 14 NonCon=     1 RMS=5.46D-08 Max=1.66D-06 NDo=     1
 LinEq1:  Iter= 15 NonCon=     1 RMS=1.61D-08 Max=4.16D-07 NDo=     1
 LinEq1:  Iter= 16 NonCon=     1 RMS=2.87D-09 Max=7.79D-08 NDo=     1
 LinEq1:  Iter= 17 NonCon=     1 RMS=5.62D-10 Max=1.68D-08 NDo=     1
 LinEq1:  Iter= 18 NonCon=     1 RMS=1.12D-10 Max=2.50D-09 NDo=     1
 LinEq1:  Iter= 19 NonCon=     0 RMS=3.41D-11 Max=8.40D-10 NDo=     1
 Linear equations converged to 1.000D-10 1.000D-09 after    19 iterations.
 End of Minotr F.D. properties file   721 does not exist.
 End of Minotr F.D. properties file   722 does not exist.
 End of Minotr F.D. properties file   788 does not exist.
 Leave Link 1002 at Thu Jun 23 14:41:52 2022, MaxMem=  1048576000 cpu:             719.1 elap:             180.3
 (Enter /home/pcmt/gaussian/g16.C.01/g16/l601.exe)
 Copying SCF densities to generalized density rwf, IOpCl= 0 IROHF=0.

 **********************************************************************

            Population analysis using the SCF Density.

 **********************************************************************

 Orbital symmetries:
       Occupied  (B1) (A1) (B2) (A1) (A1) (B1) (A1) (B1) (A1) (B2)
                 (B1) (A1) (A1) (B1) (B2) (A2) (A1) (B1) (A2) (B2)
                 (A1) (A1) (B2) (B1) (A1) (A1) (A1) (B1) (B2) (A2)
                 (B2) (A1) (B1) (A1) (B2) (A1) (B1) (A1) (B1) (A2)
                 (B2)
       Virtual   (A1) (B1) (B2) (A2) (A1) (B1) (A1) (B1) (A1) (B2)
                 (A1) (B2) (B1) (A1) (A2) (B2) (A1) (B2) (A1) (B1)
                 (A2) (B2) (B1) (A1) (A1) (B2) (B1) (A2) (A1) (B1)
                 (A2) (B2) (A1) (B1) (A1) (B2) (B1) (A2) (A1) (B1)
[...]
 251       13F-2        0.00089   0.00000   0.00000
 252       13F+3        0.00000   0.00165   0.00088
 253       13F-3       -0.00046   0.00000   0.00000
          Condensed to atoms (all electrons):
               1          2          3          4          5
     1  U   29.319331   0.361906   0.361906   0.196012   0.196012
     2  O    0.361906   8.001916   0.001096   0.010998   0.010998
     3  O    0.361906   0.001096   8.001916   0.010998   0.010998
     4  Cl   0.196012   0.010998   0.010998  17.174837   0.002657
     5  Cl   0.196012   0.010998   0.010998   0.002657  17.174837
 Mulliken charges:
               1
     1  U    1.564831
     2  O   -0.386914
     3  O   -0.386914
     4  Cl  -0.395502
     5  Cl  -0.395502
 Sum of Mulliken charges =  -0.00000
 Mulliken charges with hydrogens summed into heavy atoms:
               1
     1  U    1.564831
     2  O   -0.386914
     3  O   -0.386914
     4  Cl  -0.395502
     5  Cl  -0.395502
 Electronic spatial extent (au):  <R**2>=           1039.3029
 Charge=             -0.0000 electrons
 Dipole moment (field-independent basis, Debye):
    X=              0.0000    Y=              0.0000    Z=              4.9052  Tot=              4.9052
 Quadrupole moment (field-independent basis, Debye-Ang):
   XX=            -78.7003   YY=            -79.2228   ZZ=            -68.5393
   XY=              0.0000   XZ=              0.0000   YZ=             -0.0000
 Traceless Quadrupole moment (field-independent basis, Debye-Ang):
   XX=             -3.2128   YY=             -3.7354   ZZ=              6.9482
   XY=              0.0000   XZ=              0.0000   YZ=             -0.0000
 Octapole moment (field-independent basis, Debye-Ang**2):
  XXX=              0.0000  YYY=             -0.0000  ZZZ=             50.9128  XYY=             -0.0000
  XXY=             -0.0000  XXZ=             25.2144  XZZ=              0.0000  YZZ=             -0.0000
  YYZ=              8.9188  XYZ=             -0.0000
 Hexadecapole moment (field-independent basis, Debye-Ang**3):
 XXXX=           -752.2858 YYYY=           -305.2964 ZZZZ=           -318.6837 XXXY=              0.0000
 XXXZ=              0.0000 YYYX=              0.0000 YYYZ=              0.0000 ZZZX=              0.0000
 ZZZY=              0.0000 XXYY=           -169.7936 XXZZ=           -177.6463 YYZZ=           -105.2601
 XXYZ=              0.0000 YYXZ=              0.0000 ZZXY=              0.0000
 N-N= 5.197459886770D+02 E-N=-4.553457136040D+03  KE= 1.218388258357D+03
 Symmetry A1   KE= 5.501202996354D+02
 Symmetry A2   KE= 6.470392321231D+01
 Symmetry B1   KE= 4.507601720296D+02
 Symmetry B2   KE= 1.528038634799D+02
 Orbital energies and kinetic energies (alpha):
                                 1                 2
   1         (A1)--O        -101.686179        137.099318
   2         (B1)--O        -101.686179        137.099227
   3         (B2)--O         -19.277533         29.111963
   4         (A1)--O         -19.277526         29.112541
   5         (A1)--O         -12.176279          4.797553
   6         (A1)--O          -9.512986         21.561401
   7         (B1)--O          -9.512985         21.561673
   8         (A1)--O          -7.613788          5.116235
   9         (B1)--O          -7.612952          5.116234
  10         (B2)--O          -7.579555          5.109781
  11         (B1)--O          -7.242446         20.566399
  12         (A1)--O          -7.242444         20.566350
  13         (A1)--O          -7.241720         20.569192
  14         (B1)--O          -7.241720         20.569193
  15         (B2)--O          -7.240288         20.573592
  16         (A2)--O          -7.240286         20.573516
  17         (A1)--O          -3.977412          7.299009
  18         (B1)--O          -3.976979          7.301200
  19         (B2)--O          -3.962881          7.287015
  20         (A2)--O          -3.962529          7.287542
  21         (A1)--O          -3.955359          7.276092
  22         (A1)--O          -1.984274          2.822041
  23         (B2)--O          -1.251094          2.392595
  24         (A1)--O          -1.050259          2.680539
  25         (B1)--O          -1.029349          2.325176
  26         (A1)--O          -0.991852          2.913440
  27         (A1)--O          -0.807543          3.176567
  28         (B1)--O          -0.800036          3.229625
  29         (B2)--O          -0.768516          3.305700
  30         (B2)--O          -0.458023          2.106190
  31         (A2)--O          -0.456779          2.042117
  32         (A1)--O          -0.448126          2.602462
  33         (B1)--O          -0.433757          2.791555
  34         (A1)--O          -0.431373          2.850229
  35         (B2)--O          -0.400680          3.813612
  36         (A1)--O          -0.369664          2.422974
  37         (B1)--O          -0.360351          2.424242
  38         (A1)--O          -0.346801          2.194208
  39         (B1)--O          -0.335966          2.395561
  40         (A2)--O          -0.333649          2.448786
  41         (B2)--O          -0.319300          2.701483
  42         (A1)--V          -0.156654          5.578328
  43         (B1)--V          -0.156202          5.746707
  44         (B2)--V          -0.150981          5.824831
  45         (A2)--V          -0.149415          5.793996
  46         (A1)--V          -0.110245          3.583111
  47         (B1)--V          -0.099864          4.956648
  48         (A1)--V          -0.055767          3.061868
  49         (A1)--V          -0.023639          1.525942
  50         (B1)--V          -0.017882          2.224706
  51         (B2)--V           0.023490          4.455123
  52         (A1)--V           0.033443          0.479307
  53         (B2)--V           0.039741          0.570357
  54         (B1)--V           0.051414          0.731470
  55         (A1)--V           0.059416          0.895458
  56         (A2)--V           0.083839          2.203195
  57         (B2)--V           0.100534          2.451905
  58         (B2)--V           0.183793          1.030850
  59         (A1)--V           0.187090          0.785654
  60         (A1)--V           0.228658          1.259850
  61         (B1)--V           0.232124          1.278422
  62         (A2)--V           0.258767          1.102061
  63         (B1)--V           0.267096          1.371288
  64         (B2)--V           0.284188          1.876019
  65         (A1)--V           0.286485          1.464900
  66         (A1)--V           0.312084          1.503542
  67         (B2)--V           0.316019          1.408401
  68         (B1)--V           0.330491          1.590679
  69         (A1)--V           0.345708          1.514464
  70         (A2)--V           0.347249          1.653909
  71         (B1)--V           0.369549          1.629653
  72         (A1)--V           0.395190          1.557984
  73         (A2)--V           0.395501          1.745794
  74         (B2)--V           0.396275          1.623926
  75         (B1)--V           0.407468          1.656036
  76         (A1)--V           0.409263          1.587932
  77         (B2)--V           0.433275          1.590630
  78         (A2)--V           0.461565          1.602726
  79         (B1)--V           0.462965          1.966807
  80         (A1)--V           0.502054          1.618752
  81         (B1)--V           0.518250          1.597951
  82         (A1)--V           0.528143          1.551529
  83         (B2)--V           0.529433          1.703219
  84         (A1)--V           0.599514          1.597089
  85         (B2)--V           0.617879          1.887414
  86         (B1)--V           0.619580          1.994482
  87         (A1)--V           0.625022          3.045168
  88         (A2)--V           0.637271          1.773779
  89         (A1)--V           0.661647          1.881970
  90         (B2)--V           0.673333          1.576187
  91         (B1)--V           0.707369          1.814519
  92         (A1)--V           0.727807          1.978983
  93         (B1)--V           0.736572          1.972532
  94         (A2)--V           0.748950          1.678151
  95         (B2)--V           0.762892          1.571742
  96         (A1)--V           0.798260          2.146252
  97         (B2)--V           0.895405          1.993831
  98         (A1)--V           1.023436          3.993408
  99         (B1)--V           1.041596          4.164914
 100         (A1)--V           1.139547          3.857609
 101         (A1)--V           1.254881          3.683614
 102         (B1)--V           1.269848          3.657042
 103         (B1)--V           1.384471          3.912707
 104         (A1)--V           1.390726          3.465078
 105         (A2)--V           1.392186          4.117895
 106         (B2)--V           1.393225          4.107939
 107         (B2)--V           1.435528          3.946539
 108         (A1)--V           1.437901          3.966863
 109         (B1)--V           1.463550          4.188882
 110         (A1)--V           1.483417          3.755839
 111         (B1)--V           1.497104          3.311120
 112         (B2)--V           1.523643          3.015662
 113         (A2)--V           1.566147          3.137857
 114         (B2)--V           1.610867          3.273684
 115         (A2)--V           1.622331          3.275309
 116         (A1)--V           1.714955          4.135051
 117         (A1)--V           1.760546          4.697400
 118         (A2)--V           1.770834          4.807569
 119         (A2)--V           1.773834          4.829396
 120         (B2)--V           1.800164          4.780638
 121         (B1)--V           1.802598          4.786039
 122         (B2)--V           1.825420          4.697876
 123         (A1)--V           1.826286          4.727356
 124         (B1)--V           1.868689          4.849501
 125         (B1)--V           1.904862          4.517819
 126         (A1)--V           1.913239          4.420635
 127         (B2)--V           1.915675          4.403884
 128         (A1)--V           1.944926          4.365701
 129         (B2)--V           1.964206          4.587089
 130         (B1)--V           1.967218          5.163475
 131         (A2)--V           1.990354          4.149745
 132         (B1)--V           2.061833          3.769425
 133         (A1)--V           2.068652          3.997674
 134         (A2)--V           2.091505          3.199136
 135         (B2)--V           2.092799          3.648239
 136         (A1)--V           2.097345          3.331005
 137         (B1)--V           2.101445          3.221972
 138         (A2)--V           2.103381          3.196856
 139         (B2)--V           2.134121          3.351448
 140         (A1)--V           2.135442          3.538353
 141         (B1)--V           2.149732          4.107673
 142         (B1)--V           2.184264          3.748003
 143         (B2)--V           2.187755          4.408174
 144         (A1)--V           2.215569          5.328278
 145         (A2)--V           2.259702          6.723019
 146         (B1)--V           2.261607          6.761969
 147         (A1)--V           2.265636          4.983985
 148         (A1)--V           2.274804          6.372194
 149         (B2)--V           2.281299          5.012910
 150         (B2)--V           2.325658          6.469214
 151         (A1)--V           2.341596          5.086193
 152         (B1)--V           2.353985          5.403510
 153         (A2)--V           2.384947          4.989227
 154         (A1)--V           2.438360          5.866367
 155         (B1)--V           2.455386          6.042089
 156         (A2)--V           2.476403          6.113900
 157         (A1)--V           2.503248          6.228885
 158         (B2)--V           2.511603          6.177819
 159         (B1)--V           2.516288          6.233567
 160         (B2)--V           2.551410          6.569862
 161         (A2)--V           2.561840          6.308048
 162         (A1)--V           2.623457          7.140547
 163         (B1)--V           2.795060          6.920487
 164         (A1)--V           2.802144          6.964802
 165         (B2)--V           2.926912          7.135464
 166         (A2)--V           2.968264          7.100074
 167         (A1)--V           2.972340          7.019674
 168         (A1)--V           3.043770          7.752031
 169         (B1)--V           3.059039          7.057489
 170         (B2)--V           3.102259          7.779226
 171         (A1)--V           3.956331          9.072066
 172         (B2)--V           4.291823          8.792558
 173         (B2)--V           4.582237          9.822600
 174         (B2)--V           4.633069         11.928482
 175         (A2)--V           4.655637         11.804420
 176         (B1)--V           4.732528         12.562032
 177         (A1)--V           4.765003         12.208411
 178         (A1)--V           4.919840         11.984903
 179         (B1)--V           4.972913         12.315571
 180         (A1)--V           5.043101          7.171798
 181         (B1)--V           5.047290          7.082378
 182         (A2)--V           5.060234          8.107680
 183         (A2)--V           5.061830          6.611198
 184         (B2)--V           5.062505          6.443438
 185         (B1)--V           5.075459          6.485702
 186         (A1)--V           5.082171          6.635344
 187         (B2)--V           5.132096          7.701034
 188         (A1)--V           5.149516          9.935950
 189         (B2)--V           5.159570          7.214657
 190         (A2)--V           5.171249          7.369617
 191         (A1)--V           5.295249          7.160628
 192         (B1)--V           5.323907          7.236472
 193         (B2)--V           5.334431         11.137162
 194         (A1)--V           6.104307         11.787350
 195         (B1)--V           6.122909         12.065388
 196         (A1)--V           6.127311         14.273421
 197         (B1)--V           6.154411         15.431379
 198         (A2)--V           6.156015         16.057912
 199         (B2)--V           6.163716         15.827731
 200         (A1)--V           6.170771         13.322812
 201         (A2)--V           6.246858         11.677402
 202         (B1)--V           6.256971         13.591294
 203         (B2)--V           6.260581          9.987805
 204         (A1)--V           6.281820         14.149277
 205         (A2)--V           6.310405          9.677446
 206         (B2)--V           6.344948         10.967500
 207         (A1)--V           6.355464         12.781515
 208         (B1)--V           6.372781         13.250309
 209         (B2)--V           6.511294         11.414569
 210         (A1)--V           6.631517         10.955049
 211         (B1)--V           6.659339         10.383050
 212         (A1)--V           6.787596         11.238742
 213         (B2)--V           7.000087         14.401774
 214         (A2)--V           7.012321         13.863161
 215         (A1)--V           7.169340         15.758648
 216         (B2)--V           7.406578         12.492181
 217         (A1)--V           8.086008         16.210104
 218         (A2)--V           8.137940         16.145589
 219         (B2)--V           8.243282         16.027588
 220         (B1)--V           8.312705         16.424193
 221         (A1)--V           9.395630         16.943043
 222         (A1)--V          10.766552         33.598928
 223         (B1)--V          10.767200         33.604629
 224         (A2)--V          10.768223         33.585713
 225         (B2)--V          10.791396         33.606729
 226         (A1)--V          10.972700         33.596502
 227         (B1)--V          11.004885         33.593080
 228         (A2)--V          13.364547         34.651415
 229         (B2)--V          13.371327         34.649951
 230         (B1)--V          13.376629         34.637936
 231         (A1)--V          13.396689         34.634146
 232         (A1)--V          13.440284         34.631557
 233         (B1)--V          13.454593         34.632480
 234         (A2)--V          13.701371         34.573281
 235         (B2)--V          13.799767         34.605220
 236         (A1)--V          14.130078         34.591550
 237         (A1)--V          21.468299         43.567290
 238         (B1)--V          21.506668         43.633862
 239         (B2)--V          21.689063         43.914259
 240         (B1)--V          25.093911         44.386844
 241         (A1)--V          25.117451         44.414034
 242         (A1)--V          32.165532        437.410610
 243         (A1)--V          43.705848        108.714600
 244         (B2)--V          43.872108        108.891151
 245         (A1)--V          47.896094         92.988948
 246         (B1)--V          47.929140         93.010003
 247         (B2)--V          48.089978         93.098448
 248         (A1)--V          59.183838         43.857733
 249         (A1)--V         122.143032        236.555178
 250         (B1)--V         122.187861        236.603193
 251         (B2)--V         122.399703        236.811547
 252         (A1)--V         229.179915        139.218828
 253         (A1)--V         673.708697       1054.458753
 Total kinetic energy from orbitals= 1.218388258357D+03
 No NMR shielding tensors so no spin-rotation constants.
 Leave Link  601 at Thu Jun 23 16:18:11 2022, MaxMem=  1048576000 cpu:               1.5 elap:               0.4
 (Enter /home/pcmt/gaussian/g16.C.01/g16/l9999.exe)
 Electronic transition elements 
                 1             2             3             4 
      1  -0.154757D+04 -0.154756D+04 -0.154756D+04 -0.154756D+04
      2   0.000000D+00  0.000000D+00  0.000000D+00  0.000000D+00
      3   0.000000D+00  0.000000D+00  0.000000D+00  0.000000D+00
      4   0.000000D+00  0.000000D+00  0.000000D+00  0.000000D+00
      5   0.000000D+00  0.000000D+00  0.000000D+00  0.000000D+00
      6   0.000000D+00  0.000000D+00  0.000000D+00  0.000000D+00
      7   0.000000D+00  0.000000D+00  0.000000D+00  0.000000D+00
      8   0.000000D+00  0.000000D+00  0.000000D+00  0.000000D+00
      9   0.000000D+00  0.000000D+00  0.000000D+00  0.000000D+00
     10   0.000000D+00  0.000000D+00  0.000000D+00  0.000000D+00
     11   0.000000D+00  0.000000D+00  0.000000D+00  0.000000D+00
     12   0.000000D+00  0.000000D+00  0.000000D+00  0.000000D+00
     13   0.000000D+00  0.000000D+00  0.000000D+00  0.000000D+00
     14   0.000000D+00  0.000000D+00  0.000000D+00  0.000000D+00
     15   0.000000D+00  0.000000D+00  0.000000D+00  0.000000D+00
     16   0.000000D+00  0.000000D+00  0.000000D+00  0.000000D+00

 Test job not archived.
 1\1\GINC-U-0-12\FOpt\RPBE1PBE TD-FC\Gen\Cl2O2U1\VALLET\23-Jun-2022\0\\
 #p PBE1PBE/GEN GFInput GFPrint 5D 7F Pseudo=Read IOP(2/9=2, 4/69=2, 6/
 7=3, 8/10=91, 8/37=22, 8/38=0) EmpiricalDispersion=GD3BJ Symm=(Loose) 
 Int=(UltraFine) Guess=(Harris) Scf=(NoVarAcc,MaxCycle=100,conver=8) td
 =(triplets,nstates=4,root=2) Opt=Tight\\[UO2Cl4]2- - PBE0+D3BJ - ES\\0
 ,1\U,0.,0.258882483,0.\O,-1.7444175637,0.4694798785,0.\O,1.7444175637,
 0.4694798785,0.\Cl,0.,-1.2462533796,-2.0317916259\Cl,0.,-1.2462533796,
 2.0317916259\\Version=ES64L-G16RevC.01\State=1-A1\HF=-1547.6442578\RMS
 D=7.651e-09\RMSF=1.553e-08\Dipole=0.,1.7651163,0.\PG=C02V [C2(U1),SGV(
 O2),SGV'(Cl2)]\\@


 MICHAEL FARADAY, ASKED BY A POLITICIAN WHAT GOOD
 HIS ELECTRICAL DISCOVERIES WERE, REPLIED 
 "AT PRESENT I DO NOT KNOW, BUT ONE DAY YOU WILL BE
 ABLE TO TAX THEM."
 Job cpu time:       0 days  7 hours  1 minutes 58.9 seconds.
 Elapsed time:       0 days  1 hours 46 minutes 44.7 seconds.
 File lengths (MBytes):  RWF=    261 Int=      0 D2E=      0 Chk=     14 Scr=      1
 Normal termination of Gaussian 16 at Thu Jun 23 16:18:11 2022.
