 Entering Gaussian System, Link 0=/home/pcmt/gaussian/g16.C.01/g16/g16
 AtFile(1): /home/vallet/basis/U-ECP60MWB_SEG
 AtFile(1): /home/vallet/basis/U-ECP60MWB
 Initial command:
 /home/pcmt/gaussian/g16.C.01/g16/l1.exe "/state/partition1/vallet/866078.phlam-s-sakura/Gau-2066.inp" -scrdir="/state/partition1/vallet/866078.phlam-s-sakura/"
 Entering Link 1 = /home/pcmt/gaussian/g16.C.01/g16/l1.exe PID=      2067.
  
 Copyright (c) 1988-2019, Gaussian, Inc.  All Rights Reserved.
  
 This is part of the Gaussian(R) 16 program.  It is based on
 the Gaussian(R) 09 system (copyright 2009, Gaussian, Inc.),
 the Gaussian(R) 03 system (copyright 2003, Gaussian, Inc.),
 the Gaussian(R) 98 system (copyright 1998, Gaussian, Inc.),
 the Gaussian(R) 94 system (copyright 1995, Gaussian, Inc.),
 the Gaussian 92(TM) system (copyright 1992, Gaussian, Inc.),
 the Gaussian 90(TM) system (copyright 1990, Gaussian, Inc.),
 the Gaussian 88(TM) system (copyright 1988, Gaussian, Inc.),
 the Gaussian 86(TM) system (copyright 1986, Carnegie Mellon
 University), and the Gaussian 82(TM) system (copyright 1983,
 Carnegie Mellon University). Gaussian is a federally registered
 trademark of Gaussian, Inc.
  
 This software contains proprietary and confidential information,
 including trade secrets, belonging to Gaussian, Inc.
  
 This software is provided under written license and may be
 used, copied, transmitted, or stored only in accord with that
 written license.
  
 The following legend is applicable only to US Government
 contracts under FAR:
  
                    RESTRICTED RIGHTS LEGEND
  
 Use, reproduction and disclosure by the US Government is
 subject to restrictions as set forth in subparagraphs (a)
 and (c) of the Commercial Computer Software - Restricted
 Rights clause in FAR 52.227-19.
  
 Gaussian, Inc.
 340 Quinnipiac St., Bldg. 40, Wallingford CT 06492
  
  
 ---------------------------------------------------------------
 Warning -- This program may not be used in any manner that
 competes with the business of Gaussian, Inc. or will provide
 assistance to any competitor of Gaussian, Inc.  The licensee
 of this program is prohibited from giving any competitor of
 Gaussian, Inc. access to this program.  By using this program,
 the user acknowledges that Gaussian, Inc. is engaged in the
 business of creating and licensing software in the field of
 computational chemistry and represents and warrants to the
 licensee that it is not a competitor of Gaussian, Inc. and that
 it will not use this program in any manner prohibited above.
 ---------------------------------------------------------------
  

 Cite this work as:
 Gaussian 16, Revision C.01,
 M. J. Frisch, G. W. Trucks, H. B. Schlegel, G. E. Scuseria, 
 M. A. Robb, J. R. Cheeseman, G. Scalmani, V. Barone, 
 G. A. Petersson, H. Nakatsuji, X. Li, M. Caricato, A. V. Marenich, 
 J. Bloino, B. G. Janesko, R. Gomperts, B. Mennucci, H. P. Hratchian, 
 J. V. Ortiz, A. F. Izmaylov, J. L. Sonnenberg, D. Williams-Young, 
 F. Ding, F. Lipparini, F. Egidi, J. Goings, B. Peng, A. Petrone, 
 T. Henderson, D. Ranasinghe, V. G. Zakrzewski, J. Gao, N. Rega, 
 G. Zheng, W. Liang, M. Hada, M. Ehara, K. Toyota, R. Fukuda, 
 J. Hasegawa, M. Ishida, T. Nakajima, Y. Honda, O. Kitao, H. Nakai, 
 T. Vreven, K. Throssell, J. A. Montgomery, Jr., J. E. Peralta, 
 F. Ogliaro, M. J. Bearpark, J. J. Heyd, E. N. Brothers, K. N. Kudin, 
 V. N. Staroverov, T. A. Keith, R. Kobayashi, J. Normand, 
 K. Raghavachari, A. P. Rendell, J. C. Burant, S. S. Iyengar, 
 J. Tomasi, M. Cossi, J. M. Millam, M. Klene, C. Adamo, R. Cammi, 
 J. W. Ochterski, R. L. Martin, K. Morokuma, O. Farkas, 
 J. B. Foresman, and D. J. Fox, Gaussian, Inc., Wallingford CT, 2019.
 
 ******************************************
 Gaussian 16:  ES64L-G16RevC.01  3-Jul-2019
                24-Jun-2022 
 ******************************************
 %mem=8000Mb
 %NProc=4
 Will use up to    4 processors via shared memory.
 %oldchk=tddft-s4-uo2_cl2.pbe0-d3.optg.chk
 %chk=tddft-s4-uo2_cl2.pbe0-d3.freq.chk
 Copying data from "tddft-s4-uo2_cl2.pbe0-d3.optg.chk" to current chk file "tddft-s4-uo2_cl2.pbe0-d3.freq.chk"
 IOpt=  2 FromEx=T IUOpen= 4 IOptOp= 5 NList=   0 IFRang= 0 IUIn= 4 IUOut= 2.
 ----------------------------------------------------------------------
 #p PBE1PBE/GEN GFInput GFPrint 5D 7F Pseudo=Read IOP(2/9=2, 4/69=2, 6/
 7=3, 8/10=91, 8/37=22, 8/38=0) EmpiricalDispersion=GD3BJ Symm=(Loose) 
 Int=(UltraFine) Guess=(CheckPoint) Geom=CheckPoint Scf=(NoVarAcc,MaxCy
 cle=100,conver=8) td=(triplets,nstates=4,root=4) Freq
 ----------------------------------------------------------------------
 1/10=4,29=2,30=1,38=1/1,3;
 2/9=2,12=2,17=4,18=3,40=1/2;
 3/5=7,8=11,11=9,14=-4,16=1,17=8,24=110,25=1,30=1,71=2,74=-13,75=-5,116=-2,124=41,140=1/1,2,3,8;
 4/5=1,69=2/1;
 5/5=2,6=8,7=100,38=6,98=1/2;
 8/6=1,10=91,37=22,107=4,108=4/1;
 9/8=4,15=3,41=4,42=1,48=3,70=2/14;
 10/5=2004,20=4,28=4/2;
 11/6=1,8=1,12=-4,16=1,42=3/1,2,10;
 10/6=3,21=1,28=4/2,14;
 6/7=3,8=2,9=2,10=2/1;
 7/8=1,10=1,12=6,13=8,14=4,25=1,44=2/1,2,3,16;
 1/10=4,30=1/3;
 99//99;
 Leave Link    1 at Fri Jun 24 11:48:07 2022, MaxMem=  1048576000 cpu:               0.6 elap:               0.1
 (Enter /home/pcmt/gaussian/g16.C.01/g16/l101.exe)
 ---------------------------
 [UO2Cl4]2- - PBE0+D3BJ - ES
 ---------------------------
 Structure from the checkpoint file:  "tddft-s4-uo2_cl2.pbe0-d3.freq.chk"
 Charge =  0 Multiplicity = 1
 Redundant internal coordinates found in file.  (old form).
 U,0,0.,0.2562688224,0.
 O,0,-1.7477864416,0.5149593771,0.
 O,0,1.7477864416,0.5149593771,0.
 Cl,0,0.,-1.2899699399,-2.0125990189
 Cl,0,0.,-1.2899699399,2.0125990189
 Recover connectivity data from disk.
 ITRead=  0  0  0  0  0
 MicOpt= -1 -1 -1 -1 -1
 NAtoms=      5 NQM=        5 NQMF=       0 NMMI=      0 NMMIF=      0
                NMic=       0 NMicF=      0.
                    Isotopes and Nuclear Properties:
 (Nuclear quadrupole moments (NQMom) in fm**2, nuclear magnetic moments (NMagM)
  in nuclear magnetons)

  Atom         1           2           3           4           5
 IAtWgt=         238          16          16          35          35
 AtmWgt= 238.0508000  15.9949146  15.9949146  34.9688527  34.9688527
 NucSpn=           0           0           0           3           3
 AtZEff=   0.0000000   5.6000000   5.6000000  14.2400000  14.2400000
 NQMom=    0.0000000   0.0000000   0.0000000  -8.1650000  -8.1650000
 NMagM=    0.0000000   0.0000000   0.0000000   0.8218740   0.8218740
 AtZNuc=  92.0000000   8.0000000   8.0000000  17.0000000  17.0000000
 Leave Link  101 at Fri Jun 24 11:48:08 2022, MaxMem=  1048576000 cpu:               0.8 elap:               0.2
 (Enter /home/pcmt/gaussian/g16.C.01/g16/l103.exe)

 GradGradGradGradGradGradGradGradGradGradGradGradGradGradGradGradGradGrad
 Berny optimization.
 Initialization pass.
                           ----------------------------
                           !    Initial Parameters    !
                           ! (Angstroms and Degrees)  !
 --------------------------                            --------------------------
 ! Name  Definition              Value          Derivative Info.                !
 --------------------------------------------------------------------------------
 ! R1    R(1,2)                  1.7668         calculate D2E/DX2 analytically  !
 ! R2    R(1,3)                  1.7668         calculate D2E/DX2 analytically  !
 ! R3    R(1,4)                  2.538          calculate D2E/DX2 analytically  !
 ! R4    R(1,5)                  2.538          calculate D2E/DX2 analytically  !
 ! A1    A(2,1,4)               95.1177         calculate D2E/DX2 analytically  !
 ! A2    A(2,1,5)               95.1177         calculate D2E/DX2 analytically  !
 ! A3    A(3,1,4)               95.1177         calculate D2E/DX2 analytically  !
 ! A4    A(3,1,5)               95.1177         calculate D2E/DX2 analytically  !
 ! A5    A(4,1,5)              104.9313         calculate D2E/DX2 analytically  !
 ! A6    L(2,1,3,4,-1)         190.2354         calculate D2E/DX2 analytically  !
 ! A7    L(2,1,3,4,-2)         166.6116         calculate D2E/DX2 analytically  !
 ! D1    D(2,1,5,4)             96.6942         calculate D2E/DX2 analytically  !
 ! D2    D(3,1,5,4)            -96.6942         calculate D2E/DX2 analytically  !
 --------------------------------------------------------------------------------
 Trust Radius=3.00D-01 FncErr=1.00D-07 GrdErr=1.00D-07 EigMax=2.50D+02 EigMin=1.00D-04
 Number of steps in this run=      2 maximum allowed number of steps=      2.
 GradGradGradGradGradGradGradGradGradGradGradGradGradGradGradGradGradGrad

 Leave Link  103 at Fri Jun 24 11:48:08 2022, MaxMem=  1048576000 cpu:               0.1 elap:               0.0
 (Enter /home/pcmt/gaussian/g16.C.01/g16/l202.exe)
                          Input orientation:                          
 ---------------------------------------------------------------------
 Center     Atomic      Atomic             Coordinates (Angstroms)
 Number     Number       Type             X           Y           Z
 ---------------------------------------------------------------------
      1         92           0        0.000000    0.256269    0.000000
      2          8           0       -1.747786    0.514959   -0.000000
      3          8           0        1.747786    0.514959    0.000000
      4         17           0       -0.000000   -1.289970   -2.012599
      5         17           0       -0.000000   -1.289970    2.012599
 ---------------------------------------------------------------------
                    Distance matrix (angstroms):
                    1          2          3          4          5
     1  U    0.000000
     2  O    1.766827   0.000000
     3  O    1.766827   3.495573   0.000000
     4  Cl   2.537993   3.219174   3.219174   0.000000
     5  Cl   2.537993   3.219174   3.219174   4.025198   0.000000
 Stoichiometry    Cl2O2U
 Framework group  C2V[C2(U),SGV(O2),SGV'(Cl2)]
 Deg. of freedom     4
 Full point group                 C2V     NOp   4
 RotChk:  IX=0 Diff= 2.28D-15
 Largest Abelian subgroup         C2V     NOp   4
 Largest concise Abelian subgroup C2V     NOp   4
                         Standard orientation:                         
 ---------------------------------------------------------------------
 Center     Atomic      Atomic             Coordinates (Angstroms)
 Number     Number       Type             X           Y           Z
 ---------------------------------------------------------------------
      1         92           0        0.000000    0.000000    0.341078
      2          8           0        0.000000    1.747786    0.599769
      3          8           0       -0.000000   -1.747786    0.599769
      4         17           0        2.012599   -0.000000   -1.205161
      5         17           0       -2.012599    0.000000   -1.205161
 ---------------------------------------------------------------------
 Rotational constants (GHZ):           2.1257761           1.3264274           1.1938916
 Leave Link  202 at Fri Jun 24 11:48:08 2022, MaxMem=  1048576000 cpu:               0.1 elap:               0.1
 (Enter /home/pcmt/gaussian/g16.C.01/g16/l301.exe)
 General basis read from cards:  (5D, 7F)
 Centers:       1
 S 3 1.00
     Exponent=  1.2098082000D+04 Coefficients=  1.0200000000D-04
     Exponent=  1.8337573000D+03 Coefficients=  7.7100000000D-04
     Exponent=  3.5168632000D+02 Coefficients=  2.9690000000D-03
 S 1 1.00
     Exponent=  1.0431426000D+02 Coefficients=  1.0000000000D+00
 S 3 1.00
     Exponent=  6.0905822000D+01 Coefficients=  4.9868000000D-02
     Exponent=  3.5515086000D+01 Coefficients= -2.4531300000D-01
     Exponent=  2.0891227000D+01 Coefficients=  7.2384700000D-01
 S 1 1.00
     Exponent=  1.0184647000D+01 Coefficients=  1.0000000000D+00
 S 1 1.00
     Exponent=  2.8518510000D+00 Coefficients=  1.0000000000D+00
 S 1 1.00
     Exponent=  1.5316160000D+00 Coefficients=  1.0000000000D+00
 S 1 1.00
     Exponent=  6.1620300000D-01 Coefficients=  1.0000000000D+00
 S 1 1.00
     Exponent=  2.7949400000D-01 Coefficients=  1.0000000000D+00
 S 1 1.00
     Exponent=  5.7253000000D-02 Coefficients=  1.0000000000D+00
 S 1 1.00
     Exponent=  2.3443000000D-02 Coefficients=  1.0000000000D+00
 P 5 1.00
     Exponent=  2.9068451000D+03 Coefficients=  8.8000000000D-05
     Exponent=  6.9440053000D+02 Coefficients=  7.3200000000D-04
     Exponent=  2.2463479000D+02 Coefficients=  3.4140000000D-03
     Exponent=  8.0520526000D+01 Coefficients=  1.1099000000D-02
     Exponent=  2.4080211000D+01 Coefficients=  2.5216000000D-02
 P 1 1.00
     Exponent=  1.4077580000D+01 Coefficients=  1.0000000000D+00
 P 1 1.00
     Exponent=  8.2658460000D+00 Coefficients=  1.0000000000D+00
 P 1 1.00
     Exponent=  3.4236070000D+00 Coefficients=  1.0000000000D+00
 P 1 1.00
     Exponent=  1.7084170000D+00 Coefficients=  1.0000000000D+00
 P 1 1.00
     Exponent=  6.5504600000D-01 Coefficients=  1.0000000000D+00
 P 1 1.00
     Exponent=  2.8375500000D-01 Coefficients=  1.0000000000D+00
 P 1 1.00
     Exponent=  1.0181400000D-01 Coefficients=  1.0000000000D+00
 P 1 1.00
     Exponent=  3.0535000000D-02 Coefficients=  1.0000000000D+00
 D 6 1.00
     Exponent=  4.4901953000D+02 Coefficients=  5.0000000000D-05
     Exponent=  1.5635695000D+02 Coefficients=  3.2200000000D-04
     Exponent=  6.0242439000D+01 Coefficients=  1.7770000000D-03
     Exponent=  1.7772317000D+01 Coefficients=  2.5385000000D-02
     Exponent=  1.0454304000D+01 Coefficients= -8.9378000000D-02
     Exponent=  3.5834330000D+00 Coefficients=  4.4479900000D-01
 D 1 1.00
     Exponent=  1.7637240000D+00 Coefficients=  1.0000000000D+00
 D 1 1.00
     Exponent=  7.8403000000D-01 Coefficients=  1.0000000000D+00
 D 1 1.00
     Exponent=  2.7612700000D-01 Coefficients=  1.0000000000D+00
 D 1 1.00
     Exponent=  8.6980000000D-02 Coefficients=  1.0000000000D+00
 F 5 1.00
     Exponent=  1.0528793000D+02 Coefficients=  2.2800000000D-04
     Exponent=  3.5101181000D+01 Coefficients=  2.3080000000D-03
     Exponent=  1.4564138000D+01 Coefficients=  9.2530000000D-03
     Exponent=  4.6518850000D+00 Coefficients=  1.3694900000D-01
     Exponent=  2.2559730000D+00 Coefficients=  3.3980100000D-01
 F 1 1.00
     Exponent=  1.0102740000D+00 Coefficients=  1.0000000000D+00
 F 1 1.00
     Exponent=  4.1168000000D-01 Coefficients=  1.0000000000D+00
 F 1 1.00
     Exponent=  1.4412000000D-01 Coefficients=  1.0000000000D+00
 G 4 1.00
     Exponent=  1.0528793000D+02 Coefficients=  1.3700000000D-04
     Exponent=  3.5101181000D+01 Coefficients=  1.8310000000D-03
     Exponent=  1.4564138000D+01 Coefficients=  1.9940000000D-02
     Exponent=  4.6518850000D+00 Coefficients=  1.1075800000D-01
 G 1 1.00
     Exponent=  2.2559730000D+00 Coefficients=  1.0000000000D+00
 G 1 1.00
     Exponent=  1.0102740000D+00 Coefficients=  1.0000000000D+00
 ****
 Centers:       4      5
 Def2TZVP
 ****
 Centers:       2      3
 Def2TZVP
 ****
 ======================================================================================================
                                       Pseudopotential Parameters
 ======================================================================================================
  Center     Atomic      Valence      Angular      Power
  Number     Number     Electrons     Momentum     of R      Exponent        Coefficient   SO-Coeffient
 ======================================================================================================
    1         92           32
                                      H and up 
                                                     2        1.0000000        0.00000000    0.00000000
                                      S - H
                                                     2       16.4140387      536.51662778    0.00000000
                                      P - H
                                                     2        9.0605561      169.54492465    0.00000000
                                      D - H
                                                     2        8.8318320      142.61559837    0.00000000
                                      F - H
                                                     2        7.0185163       60.39307602    0.00000000
                                      G - H
                                                     2       12.8040884      -60.12998958    0.00000000
    2          8
                                   No pseudopotential on this center.
    3          8
                                   No pseudopotential on this center.
    4         17
                                   No pseudopotential on this center.
    5         17
                                   No pseudopotential on this center.
 ======================================================================================================
 Ernie: Thresh=  0.10000D-02 Tol=  0.10000D-05 Strict=F.
 AO basis set in the form of general basis input (Overlap normalization):
      1 0
 S   3 1.00       0.000000000000
      0.1209808200D+05  0.2884168448D-01
      0.1833757300D+04  0.2180092033D+00
      0.3516863200D+03  0.8395192276D+00
 S   3 1.00       0.000000000000
      0.6090582200D+02  0.9338504807D-01
      0.3551508600D+02 -0.4593840999D+00
      0.2089122700D+02  0.1355508280D+01
 S   1 1.00       0.000000000000
      0.1043142600D+03  0.1000000000D+01
 S   1 1.00       0.000000000000
      0.1018464700D+02  0.1000000000D+01
 S   1 1.00       0.000000000000
      0.2851851000D+01  0.1000000000D+01
 S   1 1.00       0.000000000000
      0.1531616000D+01  0.1000000000D+01
 S   1 1.00       0.000000000000
      0.6162030000D+00  0.1000000000D+01
 S   1 1.00       0.000000000000
      0.2794940000D+00  0.1000000000D+01
 S   1 1.00       0.000000000000
      0.5725300000D-01  0.1000000000D+01
 S   1 1.00       0.000000000000
      0.2344300000D-01  0.1000000000D+01
 P   5 1.00       0.000000000000
      0.2906845100D+04  0.2490724940D-02
      0.6944005300D+03  0.2071830291D-01
      0.2246347900D+03  0.9662880620D-01
      0.8052052600D+02  0.3141426831D+00
      0.2408021100D+02  0.7137059101D+00
 P   1 1.00       0.000000000000
      0.1407758000D+02  0.1000000000D+01
 P   1 1.00       0.000000000000
      0.8265846000D+01  0.1000000000D+01
 P   1 1.00       0.000000000000
      0.3423607000D+01  0.1000000000D+01
 P   1 1.00       0.000000000000
      0.1708417000D+01  0.1000000000D+01
 P   1 1.00       0.000000000000
      0.6550460000D+00  0.1000000000D+01
 P   1 1.00       0.000000000000
      0.2837550000D+00  0.1000000000D+01
 P   1 1.00       0.000000000000
      0.1018140000D+00  0.1000000000D+01
 P   1 1.00       0.000000000000
      0.3053500000D-01  0.1000000000D+01
 D   6 1.00       0.000000000000
      0.4490195300D+03  0.1244413406D-03
      0.1563569500D+03  0.8014022332D-03
      0.6024243900D+02  0.4422645243D-02
      0.1777231700D+02  0.6317886860D-01
      0.1045430400D+02 -0.2224463627D+00
      0.3583433000D+01  0.1107027677D+01
 D   1 1.00       0.000000000000
      0.1763724000D+01  0.1000000000D+01
 D   1 1.00       0.000000000000
      0.7840300000D+00  0.1000000000D+01
 D   1 1.00       0.000000000000
      0.2761270000D+00  0.1000000000D+01
 D   1 1.00       0.000000000000
      0.8698000000D-01  0.1000000000D+01
 F   5 1.00       0.000000000000
      0.1052879300D+03  0.5015876177D-03
      0.3510118100D+02  0.5077474656D-02
      0.1456413800D+02  0.2035609748D-01
      0.4651885000D+01  0.3012803625D+00
      0.2255973000D+01  0.7475437460D+00
 F   1 1.00       0.000000000000
      0.1010274000D+01  0.1000000000D+01
 F   1 1.00       0.000000000000
      0.4116800000D+00  0.1000000000D+01
 F   1 1.00       0.000000000000
      0.1441200000D+00  0.1000000000D+01
 G   4 1.00       0.000000000000
      0.1052879300D+03  0.1132460043D-02
      0.3510118100D+02  0.1513528715D-01
      0.1456413800D+02  0.1648266662D+00
      0.4651885000D+01  0.9155402153D+00
 G   1 1.00       0.000000000000
      0.2255973000D+01  0.1000000000D+01
 G   1 1.00       0.000000000000
      0.1010274000D+01  0.1000000000D+01
 ****
      2 0
 S   6 1.00       0.000000000000
      0.2703238263D+05  0.5722733521D-03
      0.4052387139D+04  0.4435323349D-02
      0.9223272271D+03  0.2302010771D-01
      0.2612407099D+03  0.9282249067D-01
      0.8535464135D+02  0.2937850001D+00
      0.3103503524D+02  0.6740160450D+00
 S   2 1.00       0.000000000000
      0.1226086073D+02  0.6383993703D+00
      0.4998707601D+01  0.3953458713D+00
 S   1 1.00       0.000000000000
      0.1170310816D+01  0.1000000000D+01
 S   1 1.00       0.000000000000
      0.4647474099D+00  0.1000000000D+01
 S   1 1.00       0.000000000000
      0.1850453636D+00  0.1000000000D+01
 P   4 1.00       0.000000000000
      0.6327495480D+02  0.1201833222D-01
      0.1462704938D+02  0.8300542179D-01
      0.4450122346D+01  0.3199174393D+00
      0.1527579965D+01  0.7071554292D+00
 P   1 1.00       0.000000000000
      0.5293511794D+00  0.1000000000D+01
 P   1 1.00       0.000000000000
      0.1747842127D+00  0.1000000000D+01
 D   1 1.00       0.000000000000
      0.2314000000D+01  0.1000000000D+01
 D   1 1.00       0.000000000000
      0.6450000000D+00  0.1000000000D+01
 F   1 1.00       0.000000000000
      0.1428000000D+01  0.1000000000D+01
 ****
      3 0
 S   6 1.00       0.000000000000
      0.2703238263D+05  0.5722733521D-03
      0.4052387139D+04  0.4435323349D-02
      0.9223272271D+03  0.2302010771D-01
      0.2612407099D+03  0.9282249067D-01
      0.8535464135D+02  0.2937850001D+00
      0.3103503524D+02  0.6740160450D+00
 S   2 1.00       0.000000000000
      0.1226086073D+02  0.6383993703D+00
      0.4998707601D+01  0.3953458713D+00
 S   1 1.00       0.000000000000
      0.1170310816D+01  0.1000000000D+01
 S   1 1.00       0.000000000000
      0.4647474099D+00  0.1000000000D+01
 S   1 1.00       0.000000000000
      0.1850453636D+00  0.1000000000D+01
 P   4 1.00       0.000000000000
      0.6327495480D+02  0.1201833222D-01
      0.1462704938D+02  0.8300542179D-01
      0.4450122346D+01  0.3199174393D+00
      0.1527579965D+01  0.7071554292D+00
 P   1 1.00       0.000000000000
      0.5293511794D+00  0.1000000000D+01
 P   1 1.00       0.000000000000
      0.1747842127D+00  0.1000000000D+01
 D   1 1.00       0.000000000000
      0.2314000000D+01  0.1000000000D+01
 D   1 1.00       0.000000000000
      0.6450000000D+00  0.1000000000D+01
 F   1 1.00       0.000000000000
      0.1428000000D+01  0.1000000000D+01
 ****
      4 0
 S   7 1.00       0.000000000000
      0.6950799094D+05  0.5145738965D-03
      0.1042615688D+05  0.3978134481D-02
      0.2373233406D+04  0.2045617867D-01
      0.6715642007D+03  0.8014810289D-01
      0.2184199979D+03  0.2345477032D+00
      0.7757224971D+02  0.4454336858D+00
      0.2888881528D+02  0.3546684250D+00
 S   3 1.00       0.000000000000
      0.1271052718D+03  0.1129368805D+00
      0.3933958296D+02  0.4837351421D+00
      0.7674067999D+01 -0.1229229739D+01
 S   2 1.00       0.000000000000
      0.3874562763D+01  0.6729682164D+00
      0.1838583257D+01  0.3495605141D+00
 S   1 1.00       0.000000000000
      0.5022905754D+00  0.1000000000D+01
 S   1 1.00       0.000000000000
      0.1796272342D+00  0.1000000000D+01
 P   5 1.00       0.000000000000
      0.6665042328D+03  0.3350250820D-02
      0.1576424169D+03  0.2676397041D-01
      0.5026252098D+02  0.1236268236D+00
      0.1853607811D+02  0.3584578792D+00
      0.7294053278D+01  0.6167729635D+00
 P   1 1.00       0.000000000000
      0.2943324899D+01  0.1000000000D+01
 P   1 1.00       0.000000000000
      0.1040497082D+01  0.1000000000D+01
 P   1 1.00       0.000000000000
      0.3845641508D+00  0.1000000000D+01
 P   1 1.00       0.000000000000
      0.1306964273D+00  0.1000000000D+01
 D   2 1.00       0.000000000000
      0.4610000000D+01  0.1826583505D+00
      0.1011000000D+01  0.9132917523D+00
 D   1 1.00       0.000000000000
      0.3390000000D+00  0.1000000000D+01
 F   1 1.00       0.000000000000
      0.7060000000D+00  0.1000000000D+01
 ****
      5 0
 S   7 1.00       0.000000000000
      0.6950799094D+05  0.5145738965D-03
      0.1042615688D+05  0.3978134481D-02
      0.2373233406D+04  0.2045617867D-01
      0.6715642007D+03  0.8014810289D-01
      0.2184199979D+03  0.2345477032D+00
      0.7757224971D+02  0.4454336858D+00
      0.2888881528D+02  0.3546684250D+00
 S   3 1.00       0.000000000000
      0.1271052718D+03  0.1129368805D+00
      0.3933958296D+02  0.4837351421D+00
      0.7674067999D+01 -0.1229229739D+01
 S   2 1.00       0.000000000000
      0.3874562763D+01  0.6729682164D+00
      0.1838583257D+01  0.3495605141D+00
 S   1 1.00       0.000000000000
      0.5022905754D+00  0.1000000000D+01
 S   1 1.00       0.000000000000
      0.1796272342D+00  0.1000000000D+01
 P   5 1.00       0.000000000000
      0.6665042328D+03  0.3350250820D-02
      0.1576424169D+03  0.2676397041D-01
      0.5026252098D+02  0.1236268236D+00
      0.1853607811D+02  0.3584578792D+00
      0.7294053278D+01  0.6167729635D+00
 P   1 1.00       0.000000000000
      0.2943324899D+01  0.1000000000D+01
 P   1 1.00       0.000000000000
      0.1040497082D+01  0.1000000000D+01
 P   1 1.00       0.000000000000
      0.3845641508D+00  0.1000000000D+01
 P   1 1.00       0.000000000000
      0.1306964273D+00  0.1000000000D+01
 D   2 1.00       0.000000000000
      0.4610000000D+01  0.1826583505D+00
      0.1011000000D+01  0.9132917523D+00
 D   1 1.00       0.000000000000
      0.3390000000D+00  0.1000000000D+01
 F   1 1.00       0.000000000000
      0.7060000000D+00  0.1000000000D+01
 ****

 AO basis set (Overlap normalization):
 Atom U1       Shell     1 S   3     bf    1 -     1          0.000000000000          0.000000000000          0.644543914543
      0.1209808200D+05  0.2884168448D-01
      0.1833757300D+04  0.2180092033D+00
      0.3516863200D+03  0.8395192276D+00
 Atom U1       Shell     2 S   3     bf    2 -     2          0.000000000000          0.000000000000          0.644543914543
      0.6090582200D+02  0.9338504807D-01
      0.3551508600D+02 -0.4593840999D+00
      0.2089122700D+02  0.1355508280D+01
 Atom U1       Shell     3 S   1     bf    3 -     3          0.000000000000          0.000000000000          0.644543914543
      0.1043142600D+03  0.1000000000D+01
 Atom U1       Shell     4 S   1     bf    4 -     4          0.000000000000          0.000000000000          0.644543914543
      0.1018464700D+02  0.1000000000D+01
 Atom U1       Shell     5 S   1     bf    5 -     5          0.000000000000          0.000000000000          0.644543914543
      0.2851851000D+01  0.1000000000D+01
 Atom U1       Shell     6 S   1     bf    6 -     6          0.000000000000          0.000000000000          0.644543914543
      0.1531616000D+01  0.1000000000D+01
 Atom U1       Shell     7 S   1     bf    7 -     7          0.000000000000          0.000000000000          0.644543914543
      0.6162030000D+00  0.1000000000D+01
 Atom U1       Shell     8 S   1     bf    8 -     8          0.000000000000          0.000000000000          0.644543914543
      0.2794940000D+00  0.1000000000D+01
 Atom U1       Shell     9 S   1     bf    9 -     9          0.000000000000          0.000000000000          0.644543914543
      0.5725300000D-01  0.1000000000D+01
 Atom U1       Shell    10 S   1     bf   10 -    10          0.000000000000          0.000000000000          0.644543914543
      0.2344300000D-01  0.1000000000D+01
 Atom U1       Shell    11 P   5     bf   11 -    13          0.000000000000          0.000000000000          0.644543914543
      0.2906845100D+04  0.2490724940D-02
      0.6944005300D+03  0.2071830291D-01
      0.2246347900D+03  0.9662880620D-01
      0.8052052600D+02  0.3141426831D+00
      0.2408021100D+02  0.7137059101D+00
 Atom U1       Shell    12 P   1     bf   14 -    16          0.000000000000          0.000000000000          0.644543914543
      0.1407758000D+02  0.1000000000D+01
 Atom U1       Shell    13 P   1     bf   17 -    19          0.000000000000          0.000000000000          0.644543914543
      0.8265846000D+01  0.1000000000D+01
 Atom U1       Shell    14 P   1     bf   20 -    22          0.000000000000          0.000000000000          0.644543914543
      0.3423607000D+01  0.1000000000D+01
 Atom U1       Shell    15 P   1     bf   23 -    25          0.000000000000          0.000000000000          0.644543914543
      0.1708417000D+01  0.1000000000D+01
 Atom U1       Shell    16 P   1     bf   26 -    28          0.000000000000          0.000000000000          0.644543914543
      0.6550460000D+00  0.1000000000D+01
 Atom U1       Shell    17 P   1     bf   29 -    31          0.000000000000          0.000000000000          0.644543914543
      0.2837550000D+00  0.1000000000D+01
 Atom U1       Shell    18 P   1     bf   32 -    34          0.000000000000          0.000000000000          0.644543914543
      0.1018140000D+00  0.1000000000D+01
 Atom U1       Shell    19 P   1     bf   35 -    37          0.000000000000          0.000000000000          0.644543914543
      0.3053500000D-01  0.1000000000D+01
 Atom U1       Shell    20 D   6     bf   38 -    42          0.000000000000          0.000000000000          0.644543914543
      0.4490195300D+03  0.1244413406D-03
      0.1563569500D+03  0.8014022332D-03
      0.6024243900D+02  0.4422645243D-02
      0.1777231700D+02  0.6317886860D-01
      0.1045430400D+02 -0.2224463627D+00
      0.3583433000D+01  0.1107027677D+01
 Atom U1       Shell    21 D   1     bf   43 -    47          0.000000000000          0.000000000000          0.644543914543
      0.1763724000D+01  0.1000000000D+01
 Atom U1       Shell    22 D   1     bf   48 -    52          0.000000000000          0.000000000000          0.644543914543
      0.7840300000D+00  0.1000000000D+01
 Atom U1       Shell    23 D   1     bf   53 -    57          0.000000000000          0.000000000000          0.644543914543
      0.2761270000D+00  0.1000000000D+01
 Atom U1       Shell    24 D   1     bf   58 -    62          0.000000000000          0.000000000000          0.644543914543
      0.8698000000D-01  0.1000000000D+01
 Atom U1       Shell    25 F   5     bf   63 -    69          0.000000000000          0.000000000000          0.644543914543
      0.1052879300D+03  0.5015876177D-03
      0.3510118100D+02  0.5077474656D-02
      0.1456413800D+02  0.2035609748D-01
      0.4651885000D+01  0.3012803625D+00
      0.2255973000D+01  0.7475437460D+00
 Atom U1       Shell    26 F   1     bf   70 -    76          0.000000000000          0.000000000000          0.644543914543
      0.1010274000D+01  0.1000000000D+01
 Atom U1       Shell    27 F   1     bf   77 -    83          0.000000000000          0.000000000000          0.644543914543
      0.4116800000D+00  0.1000000000D+01
 Atom U1       Shell    28 F   1     bf   84 -    90          0.000000000000          0.000000000000          0.644543914543
      0.1441200000D+00  0.1000000000D+01
 Atom U1       Shell    29 G   4     bf   91 -    99          0.000000000000          0.000000000000          0.644543914543
      0.1052879300D+03  0.1132460043D-02
      0.3510118100D+02  0.1513528715D-01
      0.1456413800D+02  0.1648266662D+00
      0.4651885000D+01  0.9155402153D+00
 Atom U1       Shell    30 G   1     bf  100 -   108          0.000000000000          0.000000000000          0.644543914543
      0.2255973000D+01  0.1000000000D+01
 Atom U1       Shell    31 G   1     bf  109 -   117          0.000000000000          0.000000000000          0.644543914543
      0.1010274000D+01  0.1000000000D+01
 Atom O2       Shell    32 S   6     bf  118 -   118          0.000000000000          3.302837698805          1.133398213976
      0.2703238263D+05  0.5722733521D-03
      0.4052387139D+04  0.4435323349D-02
      0.9223272271D+03  0.2302010771D-01
      0.2612407099D+03  0.9282249067D-01
      0.8535464135D+02  0.2937850001D+00
      0.3103503524D+02  0.6740160450D+00
 Atom O2       Shell    33 S   2     bf  119 -   119          0.000000000000          3.302837698805          1.133398213976
      0.1226086073D+02  0.6383993703D+00
      0.4998707601D+01  0.3953458713D+00
 Atom O2       Shell    34 S   1     bf  120 -   120          0.000000000000          3.302837698805          1.133398213976
      0.1170310816D+01  0.1000000000D+01
 Atom O2       Shell    35 S   1     bf  121 -   121          0.000000000000          3.302837698805          1.133398213976
      0.4647474099D+00  0.1000000000D+01
 Atom O2       Shell    36 S   1     bf  122 -   122          0.000000000000          3.302837698805          1.133398213976
      0.1850453636D+00  0.1000000000D+01
 Atom O2       Shell    37 P   4     bf  123 -   125          0.000000000000          3.302837698805          1.133398213976
      0.6327495480D+02  0.1201833222D-01
      0.1462704938D+02  0.8300542179D-01
      0.4450122346D+01  0.3199174393D+00
      0.1527579965D+01  0.7071554292D+00
 Atom O2       Shell    38 P   1     bf  126 -   128          0.000000000000          3.302837698805          1.133398213976
      0.5293511794D+00  0.1000000000D+01
 Atom O2       Shell    39 P   1     bf  129 -   131          0.000000000000          3.302837698805          1.133398213976
      0.1747842127D+00  0.1000000000D+01
 Atom O2       Shell    40 D   1     bf  132 -   136          0.000000000000          3.302837698805          1.133398213976
      0.2314000000D+01  0.1000000000D+01
 Atom O2       Shell    41 D   1     bf  137 -   141          0.000000000000          3.302837698805          1.133398213976
      0.6450000000D+00  0.1000000000D+01
 Atom O2       Shell    42 F   1     bf  142 -   148          0.000000000000          3.302837698805          1.133398213976
      0.1428000000D+01  0.1000000000D+01
 Atom O3       Shell    43 S   6     bf  149 -   149         -0.000000000000         -3.302837698805          1.133398213976
      0.2703238263D+05  0.5722733521D-03
      0.4052387139D+04  0.4435323349D-02
      0.9223272271D+03  0.2302010771D-01
      0.2612407099D+03  0.9282249067D-01
      0.8535464135D+02  0.2937850001D+00
      0.3103503524D+02  0.6740160450D+00
 Atom O3       Shell    44 S   2     bf  150 -   150         -0.000000000000         -3.302837698805          1.133398213976
      0.1226086073D+02  0.6383993703D+00
      0.4998707601D+01  0.3953458713D+00
 Atom O3       Shell    45 S   1     bf  151 -   151         -0.000000000000         -3.302837698805          1.133398213976
      0.1170310816D+01  0.1000000000D+01
 Atom O3       Shell    46 S   1     bf  152 -   152         -0.000000000000         -3.302837698805          1.133398213976
      0.4647474099D+00  0.1000000000D+01
 Atom O3       Shell    47 S   1     bf  153 -   153         -0.000000000000         -3.302837698805          1.133398213976
      0.1850453636D+00  0.1000000000D+01
 Atom O3       Shell    48 P   4     bf  154 -   156         -0.000000000000         -3.302837698805          1.133398213976
      0.6327495480D+02  0.1201833222D-01
      0.1462704938D+02  0.8300542179D-01
      0.4450122346D+01  0.3199174393D+00
      0.1527579965D+01  0.7071554292D+00
 Atom O3       Shell    49 P   1     bf  157 -   159         -0.000000000000         -3.302837698805          1.133398213976
      0.5293511794D+00  0.1000000000D+01
 Atom O3       Shell    50 P   1     bf  160 -   162         -0.000000000000         -3.302837698805          1.133398213976
      0.1747842127D+00  0.1000000000D+01
 Atom O3       Shell    51 D   1     bf  163 -   167         -0.000000000000         -3.302837698805          1.133398213976
      0.2314000000D+01  0.1000000000D+01
 Atom O3       Shell    52 D   1     bf  168 -   172         -0.000000000000         -3.302837698805          1.133398213976
      0.6450000000D+00  0.1000000000D+01
 Atom O3       Shell    53 F   1     bf  173 -   179         -0.000000000000         -3.302837698805          1.133398213976
      0.1428000000D+01  0.1000000000D+01
 Atom Cl4      Shell    54 S   7     bf  180 -   180          3.803260944281         -0.000000000000         -2.277423869459
      0.6950799094D+05  0.5145738965D-03
      0.1042615688D+05  0.3978134481D-02
      0.2373233406D+04  0.2045617867D-01
      0.6715642007D+03  0.8014810289D-01
      0.2184199979D+03  0.2345477032D+00
      0.7757224971D+02  0.4454336858D+00
      0.2888881528D+02  0.3546684250D+00
 Atom Cl4      Shell    55 S   3     bf  181 -   181          3.803260944281         -0.000000000000         -2.277423869459
      0.1271052718D+03  0.1129368805D+00
      0.3933958296D+02  0.4837351421D+00
      0.7674067999D+01 -0.1229229739D+01
 Atom Cl4      Shell    56 S   2     bf  182 -   182          3.803260944281         -0.000000000000         -2.277423869459
      0.3874562763D+01  0.6729682164D+00
      0.1838583257D+01  0.3495605141D+00
 Atom Cl4      Shell    57 S   1     bf  183 -   183          3.803260944281         -0.000000000000         -2.277423869459
      0.5022905754D+00  0.1000000000D+01
 Atom Cl4      Shell    58 S   1     bf  184 -   184          3.803260944281         -0.000000000000         -2.277423869459
      0.1796272342D+00  0.1000000000D+01
 Atom Cl4      Shell    59 P   5     bf  185 -   187          3.803260944281         -0.000000000000         -2.277423869459
      0.6665042328D+03  0.3350250820D-02
      0.1576424169D+03  0.2676397041D-01
      0.5026252098D+02  0.1236268236D+00
      0.1853607811D+02  0.3584578792D+00
      0.7294053278D+01  0.6167729635D+00
 Atom Cl4      Shell    60 P   1     bf  188 -   190          3.803260944281         -0.000000000000         -2.277423869459
      0.2943324899D+01  0.1000000000D+01
 Atom Cl4      Shell    61 P   1     bf  191 -   193          3.803260944281         -0.000000000000         -2.277423869459
      0.1040497082D+01  0.1000000000D+01
 Atom Cl4      Shell    62 P   1     bf  194 -   196          3.803260944281         -0.000000000000         -2.277423869459
      0.3845641508D+00  0.1000000000D+01
 Atom Cl4      Shell    63 P   1     bf  197 -   199          3.803260944281         -0.000000000000         -2.277423869459
      0.1306964273D+00  0.1000000000D+01
 Atom Cl4      Shell    64 D   2     bf  200 -   204          3.803260944281         -0.000000000000         -2.277423869459
      0.4610000000D+01  0.1826583505D+00
      0.1011000000D+01  0.9132917523D+00
 Atom Cl4      Shell    65 D   1     bf  205 -   209          3.803260944281         -0.000000000000         -2.277423869459
      0.3390000000D+00  0.1000000000D+01
 Atom Cl4      Shell    66 F   1     bf  210 -   216          3.803260944281         -0.000000000000         -2.277423869459
      0.7060000000D+00  0.1000000000D+01
 Atom Cl5      Shell    67 S   7     bf  217 -   217         -3.803260944281          0.000000000000         -2.277423869459
      0.6950799094D+05  0.5145738965D-03
      0.1042615688D+05  0.3978134481D-02
      0.2373233406D+04  0.2045617867D-01
      0.6715642007D+03  0.8014810289D-01
      0.2184199979D+03  0.2345477032D+00
      0.7757224971D+02  0.4454336858D+00
      0.2888881528D+02  0.3546684250D+00
 Atom Cl5      Shell    68 S   3     bf  218 -   218         -3.803260944281          0.000000000000         -2.277423869459
      0.1271052718D+03  0.1129368805D+00
      0.3933958296D+02  0.4837351421D+00
      0.7674067999D+01 -0.1229229739D+01
 Atom Cl5      Shell    69 S   2     bf  219 -   219         -3.803260944281          0.000000000000         -2.277423869459
      0.3874562763D+01  0.6729682164D+00
      0.1838583257D+01  0.3495605141D+00
 Atom Cl5      Shell    70 S   1     bf  220 -   220         -3.803260944281          0.000000000000         -2.277423869459
      0.5022905754D+00  0.1000000000D+01
 Atom Cl5      Shell    71 S   1     bf  221 -   221         -3.803260944281          0.000000000000         -2.277423869459
      0.1796272342D+00  0.1000000000D+01
 Atom Cl5      Shell    72 P   5     bf  222 -   224         -3.803260944281          0.000000000000         -2.277423869459
      0.6665042328D+03  0.3350250820D-02
      0.1576424169D+03  0.2676397041D-01
      0.5026252098D+02  0.1236268236D+00
      0.1853607811D+02  0.3584578792D+00
      0.7294053278D+01  0.6167729635D+00
 Atom Cl5      Shell    73 P   1     bf  225 -   227         -3.803260944281          0.000000000000         -2.277423869459
      0.2943324899D+01  0.1000000000D+01
 Atom Cl5      Shell    74 P   1     bf  228 -   230         -3.803260944281          0.000000000000         -2.277423869459
      0.1040497082D+01  0.1000000000D+01
 Atom Cl5      Shell    75 P   1     bf  231 -   233         -3.803260944281          0.000000000000         -2.277423869459
      0.3845641508D+00  0.1000000000D+01
 Atom Cl5      Shell    76 P   1     bf  234 -   236         -3.803260944281          0.000000000000         -2.277423869459
      0.1306964273D+00  0.1000000000D+01
 Atom Cl5      Shell    77 D   2     bf  237 -   241         -3.803260944281          0.000000000000         -2.277423869459
      0.4610000000D+01  0.1826583505D+00
      0.1011000000D+01  0.9132917523D+00
 Atom Cl5      Shell    78 D   1     bf  242 -   246         -3.803260944281          0.000000000000         -2.277423869459
      0.3390000000D+00  0.1000000000D+01
 Atom Cl5      Shell    79 F   1     bf  247 -   253         -3.803260944281          0.000000000000         -2.277423869459
      0.7060000000D+00  0.1000000000D+01
 Effective core potential in the form of general ECP input:
      1 0
 U1-ECP   5 60
 H component
  1
  2        1.0000000        0.00000000    0.00000000
 S-H projection
  1
  2       16.4140387      536.51662778    0.00000000
 P-H projection
  1
  2        9.0605561      169.54492465    0.00000000
 D-H projection
  1
  2        8.8318320      142.61559837    0.00000000
 F-H projection
  1
  2        7.0185163       60.39307602    0.00000000
 G-H projection
  1
  2       12.8040884      -60.12998958    0.00000000
 
 There are   118 symmetry adapted cartesian basis functions of A1  symmetry.
 There are    42 symmetry adapted cartesian basis functions of A2  symmetry.
 There are    75 symmetry adapted cartesian basis functions of B1  symmetry.
 There are    73 symmetry adapted cartesian basis functions of B2  symmetry.
 There are    92 symmetry adapted basis functions of A1  symmetry.
 There are    37 symmetry adapted basis functions of A2  symmetry.
 There are    63 symmetry adapted basis functions of B1  symmetry.
 There are    61 symmetry adapted basis functions of B2  symmetry.
   253 basis functions,   523 primitive gaussians,   308 cartesian basis functions
    41 alpha electrons       41 beta electrons
       nuclear repulsion energy       517.3046869686 Hartrees.
 IExCor= 1009 DFT=T Ex+Corr=PBE1PBE ExCW=0 ScaHFX=  0.250000
 ScaDFX=  0.750000  0.750000  1.000000  1.000000 ScalE2=  1.000000  1.000000
 IRadAn=      5 IRanWt=     -1 IRanGd=            0 ICorTp=0 IEmpDi=141
 NAtoms=    5 NActive=    5 NUniq=    3 SFac= 2.78D+00 NAtFMM=   60 NAOKFM=F Big=F
 Integral buffers will be    131072 words long.
 Regular integral format.
 Two-electron integral symmetry is turned on.
 R6Disp:  Grimme-D3(BJ) Dispersion energy=       -0.0055841227 Hartrees.
 Nuclear repulsion after empirical dispersion term =      517.2991028459 Hartrees.
 Leave Link  301 at Fri Jun 24 11:48:08 2022, MaxMem=  1048576000 cpu:               0.5 elap:               0.2
 (Enter /home/pcmt/gaussian/g16.C.01/g16/l302.exe)
 NPDir=0 NMtPBC=     1 NCelOv=     1 NCel=       1 NClECP=     1 NCelD=      1
         NCelK=      1 NCelE2=     1 NClLst=     1 CellRange=     0.0.
 One-electron integrals computed using PRISM.
 One-electron integral symmetry used in STVInt
   4 Symmetry operations used in ECPInt.
 ECPInt:  NShTT=    3160 NPrTT=   10748 LenC2=    3025 LenP2D=    7873.
 LDataN:  DoStor=T MaxTD1= 9 Len=  602
 NBasis=   253 RedAO= T EigKep=  9.26D-04  NBF=    92    37    63    61
 NBsUse=   253 1.00D-06 EigRej= -1.00D+00 NBFU=    92    37    63    61
 Precomputing XC quadrature grid using
 IXCGrd= 4 IRadAn=           5 IRanWt=          -1 IRanGd=           0 AccXCQ= 0.00D+00.
 Defaulting to unpruned grid for atomic number  92.
 Generated NRdTot=       0 NPtTot=           0 NUsed=           0 NTot=          32
 NSgBfM=   303   303   303   303   303 MxSgAt=     5 MxSgA2=     5.
 Leave Link  302 at Fri Jun 24 11:48:10 2022, MaxMem=  1048576000 cpu:               4.8 elap:               1.7
 (Enter /home/pcmt/gaussian/g16.C.01/g16/l303.exe)
 DipDrv:  MaxL=1.
 Leave Link  303 at Fri Jun 24 11:48:10 2022, MaxMem=  1048576000 cpu:               0.3 elap:               0.1
 (Enter /home/pcmt/gaussian/g16.C.01/g16/l308.exe)
 Leave Link  308 at Fri Jun 24 11:48:11 2022, MaxMem=  1048576000 cpu:               0.3 elap:               0.1
 (Enter /home/pcmt/gaussian/g16.C.01/g16/l401.exe)
 Initial guess from the checkpoint file:  "tddft-s4-uo2_cl2.pbe0-d3.freq.chk"
 B after Tr=    -0.000000   -0.000000    0.000000
         Rot=    1.000000    0.000000    0.000000   -0.000000 Ang=   0.00 deg.
 Guess basis will be translated and rotated to current coordinates.
 JPrj=2 DoOrth=T DoCkMO=T.
 Initial guess orbital symmetries:
       Occupied  (A1) (B1) (B2) (A1) (A1) (A1) (B1) (A1) (B1) (B2)
                 (B1) (A1) (B1) (A1) (B2) (A2) (A1) (B1) (B2) (A2)
                 (A1) (A1) (B2) (A1) (B1) (A1) (A1) (B1) (B2) (B2)
                 (A2) (A1) (B1) (A1) (B2) (A1) (B1) (A1) (B1) (A2)
                 (B2)
       Virtual   (A1) (B1) (B2) (A2) (A1) (B1) (A1) (A1) (B1) (B2)
                 (A1) (B2) (B1) (A1) (A2) (B2) (B2) (A1) (A1) (B1)
                 (A2) (B1) (A1) (B2) (A1) (B2) (B1) (A1) (A2) (B1)
                 (A1) (B2) (A2) (B1) (A1) (B2) (A2) (B1) (A1) (B1)
                 (B2) (A1) (A1) (B2) (A1) (B1) (A2) (A1) (B2) (B1)
                 (A1) (B1) (A2) (B2) (A1) (B2) (A1) (B1) (A1) (A1)
                 (B1) (B1) (A2) (A1) (B2) (B2) (A1) (B1) (A1) (B1)
                 (B2) (A2) (B2) (A2) (A1) (A1) (A2) (A2) (B2) (B1)
                 (B2) (A1) (B1) (B1) (A1) (B2) (A1) (B2) (B1) (A2)
                 (B1) (A1) (A2) (B2) (A1) (B1) (A2) (B2) (A1) (B1)
                 (B1) (B2) (A1) (A2) (B1) (A1) (A1) (B2) (B2) (A1)
                 (B1) (A2) (A1) (B1) (A2) (A1) (B2) (B1) (B2) (A2)
                 (A1) (B1) (A1) (B2) (A2) (A1) (A1) (B1) (B2) (A1)
                 (B2) (B2) (B2) (A2) (B1) (A1) (A1) (B1) (A1) (B1)
                 (A2) (A2) (B2) (B1) (A1) (A1) (B2) (B2) (A2) (A1)
                 (B2) (B1) (A1) (B1) (A1) (B1) (A2) (B2) (A1) (A2)
                 (B1) (B2) (A1) (A2) (A1) (B1) (B2) (B2) (A1) (B1)
                 (A1) (B2) (A2) (A1) (B2) (A1) (A2) (B2) (B1) (A1)
                 (A1) (A2) (B1) (B2) (A1) (B1) (A2) (B2) (B1) (A1)
                 (A1) (B1) (A2) (B2) (A1) (A1) (B1) (B2) (B1) (A1)
                 (A1) (A1) (B2) (A1) (B1) (B2) (A1) (A1) (B1) (B2)
                 (A1) (A1)
 The electronic state of the initial guess is 1-A1.
 Leave Link  401 at Fri Jun 24 11:48:11 2022, MaxMem=  1048576000 cpu:               1.0 elap:               0.3
 (Enter /home/pcmt/gaussian/g16.C.01/g16/l502.exe)
 Keep R1 ints in memory in symmetry-blocked form, NReq=646035938.
 FoFCou: FMM=F IPFlag=           0 FMFlag=           0 FMFlg1=           0
         NFxFlg=           0 DoJE=F BraDBF=F KetDBF=F FulRan=T
         wScrn=  0.000000 ICntrl=       600 IOpCl=  0 I1Cent=           0 NGrid=           0
         NMat0=    1 NMatS0=  32131 NMatT0=    0 NMatD0=    1 NMtDS0=    0 NMtDT0=    0
 Petite list used in FoFCou.
 Closed shell SCF:
 Using DIIS extrapolation, IDIIS=  1040.
 NGot=  1048576000 LenX=   918564064 LenY=   918468759
 Requested convergence on RMS density matrix=1.00D-08 within 100 cycles.
 Requested convergence on MAX density matrix=1.00D-06.
 Requested convergence on             energy=1.00D-06.
 No special actions if energy rises.

 Cycle   1  Pass 1  IDiag  1:
 Defaulting to unpruned grid for atomic number  92.
 Defaulting to unpruned grid for atomic number  92.
 Defaulting to unpruned grid for atomic number  92.
 Defaulting to unpruned grid for atomic number  92.
 E= -1547.64280713695    
 DIIS: error= 2.83D-08 at cycle   1 NSaved=   1.
 NSaved= 1 IEnMin= 1 EnMin= -1547.64280713695     IErMin= 1 ErrMin= 2.83D-08
 ErrMax= 2.83D-08  0.00D+00 EMaxC= 1.00D-01 BMatC= 1.65D-13 BMatP= 1.65D-13
 IDIUse=1 WtCom= 1.00D+00 WtEn= 0.00D+00
 Coeff-Com:  0.100D+01
 Coeff:      0.100D+01
 Gap=     0.160 Goal=   None    Shift=    0.000
 RMSDP=2.76D-09 MaxDP=1.25D-07              OVMax= 3.35D-07

 SCF Done:  E(RPBE1PBE) =  -1547.64280714     A.U. after    1 cycles
            NFock=  1  Conv=0.28D-08     -V/T= 2.2703
 KE= 1.218291981380D+03 PE=-4.548363795587D+03 EE= 1.265129904225D+03
 Leave Link  502 at Fri Jun 24 11:50:47 2022, MaxMem=  1048576000 cpu:             621.5 elap:             155.8
 (Enter /home/pcmt/gaussian/g16.C.01/g16/l801.exe)
 DoSCS=F DFT=T ScalE2(SS,OS)=  1.000000  1.000000
 Range of M.O.s used for correlation:    22   253
 NBasis=   253 NAE=    41 NBE=    41 NFC=    21 NFV=     0
 NROrb=    232 NOA=    20 NOB=    20 NVA=   212 NVB=   212

 **** Warning!!: The largest alpha MO coefficient is  0.10304241D+02

 Leave Link  801 at Fri Jun 24 11:50:47 2022, MaxMem=  1048576000 cpu:               0.1 elap:               0.1
 (Enter /home/pcmt/gaussian/g16.C.01/g16/l914.exe)
 RHF ground state
 Keep R1, R2, and R3 ints in memory in symmetry-blocked form, NReq=646036278.
 FoFCou: FMM=F IPFlag=           0 FMFlag=           0 FMFlg1=           0
         NFxFlg=           0 DoJE=F BraDBF=F KetDBF=F FulRan=T
         wScrn=  0.000000 ICntrl=       600 IOpCl=  0 I1Cent=           0 NGrid=           0
         NMat0=    1 NMatS0=  32131 NMatT0=    0 NMatD0=    1 NMtDS0=    0 NMtDT0=    0
 Petite list used in FoFCou.
 MDV=  1048576000 DFT=T DoStab=F Mixed=T DoRPA=T DoScal=F NonHer=T
 Making orbital integer symmetry assigments:
 Orbital symmetries:
       Occupied  (A1) (B1) (B2) (A1) (A1) (A1) (B1) (A1) (B1) (B2)
                 (B1) (A1) (B1) (A1) (B2) (A2) (A1) (B1) (B2) (A2)
                 (A1) (A1) (B2) (A1) (B1) (A1) (A1) (B1) (B2) (B2)
                 (A2) (A1) (B1) (A1) (B2) (A1) (B1) (A1) (B1) (A2)
                 (B2)
       Virtual   (A1) (B1) (B2) (A2) (A1) (B1) (A1) (A1) (B1) (B2)
                 (A1) (B2) (B1) (A1) (A2) (B2) (B2) (A1) (A1) (B1)
                 (A2) (B1) (A1) (B2) (A1) (B2) (B1) (A1) (A2) (B1)
                 (A1) (B2) (A2) (B1) (A1) (B2) (A2) (B1) (A1) (B1)
                 (B2) (A1) (A1) (B2) (A1) (B1) (A2) (A1) (B2) (B1)
                 (A1) (B1) (A2) (B2) (A1) (B2) (A1) (B1) (A1) (A1)
                 (B1) (B1) (A2) (A1) (B2) (B2) (A1) (B1) (A1) (B1)
                 (B2) (A2) (B2) (A2) (A1) (A1) (A2) (A2) (B2) (B1)
                 (B2) (A1) (B1) (B1) (A1) (B2) (A1) (B2) (B1) (A2)
                 (B1) (A1) (A2) (B2) (A1) (B1) (A2) (B2) (A1) (B1)
                 (B1) (B2) (A1) (A2) (B1) (A1) (A1) (B2) (B2) (A1)
                 (B1) (A2) (A1) (B1) (A2) (A1) (B2) (B1) (B2) (A2)
                 (A1) (B1) (A1) (B2) (A2) (A1) (A1) (B1) (B2) (A1)
                 (B2) (B2) (B2) (A2) (B1) (A1) (A1) (B1) (A1) (B1)
                 (A2) (A2) (B2) (B1) (A1) (A1) (B2) (B2) (A2) (A1)
                 (B2) (B1) (A1) (B1) (A1) (B1) (A2) (B2) (A1) (A2)
                 (B1) (B2) (A1) (A2) (A1) (B1) (B2) (B2) (A1) (B1)
                 (A1) (B2) (A2) (A1) (B2) (A1) (A2) (B2) (B1) (A1)
                 (A1) (A2) (B1) (B2) (A1) (B1) (A2) (B2) (B1) (A1)
                 (A1) (B1) (A2) (B2) (A1) (A1) (B1) (B2) (B1) (A1)
                 (A1) (A1) (B2) (A1) (B1) (B2) (A1) (A1) (B1) (B2)
                 (A1) (A1)
    16 initial guesses have been made.
 Convergence on wavefunction:    0.000001000000000
 Davidson Disk Diagonalization:  ConvIn= 1.00D-06 SkipCon=T Conv= 1.00D-06.
 Max sub-space:  2000 roots to seek:    16 dimension of matrix:         8480
 Iteration     1 Dimension    16 NMult     0 NNew     16
 CISAX will form    16 AO SS matrices at one time.
 NMat=    16 NSing=     0 JSym2X=-1.
 Defaulting to unpruned grid for atomic number  92.
 Defaulting to unpruned grid for atomic number  92.
 Defaulting to unpruned grid for atomic number  92.
 Defaulting to unpruned grid for atomic number  92.
 New state      1 was old state      2
 New state      2 was old state      1
 New state      3 was old state      4
 New state      4 was old state      3
 Excitation Energies [eV] at current iteration:
 Root      1 :     2.676175523608449
 Root      2 :     2.689461710254028
 Root      3 :     2.795841907648583
 Root      4 :     2.805415443627950
 Root      5 :     3.162095792185343
 Root      6 :     3.179603119470216
 Root      7 :     3.203839998633130
 Root      8 :     3.229392880241147
 Root      9 :     3.299914075023464
 Root     10 :     3.354627362095657
 Root     11 :     3.424544615204806
 Root     12 :     3.429023407139295
 Root     13 :     3.521144255799372
 Root     14 :     3.547242470925455
 Root     15 :     3.724021657097820
 Root     16 :     3.751597485279576
 Iteration     2 Dimension    24 NMult    16 NNew      8
 CISAX will form     8 AO SS matrices at one time.
 NMat=     8 NSing=     0 JSym2X=-1.
 New state      1 was old state      4
 Root      1 not converged, maximum delta is    0.486764930785421
 Root      2 not converged, maximum delta is    0.377266038813234
 New state      3 was old state      1
 Root      3 not converged, maximum delta is    0.354098191144825
 New state      4 was old state      3
 Root      4 not converged, maximum delta is    0.420220358343290
 Excitation Energies [eV] at current iteration:
 Root      1 :     2.137247105219229   Change is   -0.668168338408721
 Root      2 :     2.229801230044624   Change is   -0.459660480209404
 Root      3 :     2.238074391748179   Change is   -0.438101131860270
 Root      4 :     2.252633718082913   Change is   -0.543208189565669
 Iteration     3 Dimension    32 NMult    24 NNew      8
 CISAX will form     8 AO SS matrices at one time.
 NMat=     8 NSing=     0 JSym2X=-1.
 Root      1 not converged, maximum delta is    0.019743025643084
 Root      2 not converged, maximum delta is    0.040031859458323
 Root      3 not converged, maximum delta is    0.052665807012502
 Root      4 not converged, maximum delta is    0.040160821679863
 Excitation Energies [eV] at current iteration:
 Root      1 :     2.111440109902766   Change is   -0.025806995316463
 Root      2 :     2.192868892538091   Change is   -0.036932337506533
 Root      3 :     2.194193922130231   Change is   -0.043880469617948
 Root      4 :     2.208947210845894   Change is   -0.043686507237019
 Iteration     4 Dimension    40 NMult    32 NNew      8
 CISAX will form     8 AO SS matrices at one time.
 NMat=     8 NSing=     0 JSym2X=-1.
 Root      1 not converged, maximum delta is    0.005406372704165
 Root      2 not converged, maximum delta is    0.003358823969118
 Root      3 not converged, maximum delta is    0.005387075670357
 Root      4 not converged, maximum delta is    0.007147051909671
 Excitation Energies [eV] at current iteration:
 Root      1 :     2.110589912549551   Change is   -0.000850197353214
 Root      2 :     2.191844497087869   Change is   -0.001024395450222
 Root      3 :     2.192778958683206   Change is   -0.001414963447025
 Root      4 :     2.207556461707745   Change is   -0.001390749138150
 Iteration     5 Dimension    48 NMult    40 NNew      8
 CISAX will form     8 AO SS matrices at one time.
 NMat=     8 NSing=     0 JSym2X=-1.
 Root      1 not converged, maximum delta is    0.001110679211140
 Root      2 not converged, maximum delta is    0.001210665770167
 Root      3 not converged, maximum delta is    0.001215612879503
 Root      4 not converged, maximum delta is    0.002144944147518
 Excitation Energies [eV] at current iteration:
 Root      1 :     2.110537288222424   Change is   -0.000052624327128
 Root      2 :     2.191802878755731   Change is   -0.000041618332138
 Root      3 :     2.192730310964075   Change is   -0.000048647719131
 Root      4 :     2.207458883580679   Change is   -0.000097578127066
 Iteration     6 Dimension    56 NMult    48 NNew      8
 CISAX will form     8 AO SS matrices at one time.
 NMat=     8 NSing=     0 JSym2X=-1.
 Root      1 not converged, maximum delta is    0.000595839705949
 Root      2 not converged, maximum delta is    0.000755812443767
 Root      3 not converged, maximum delta is    0.000295031706385
 Root      4 not converged, maximum delta is    0.000826669311855
 Excitation Energies [eV] at current iteration:
 Root      1 :     2.110533086748527   Change is   -0.000004201473897
 Root      2 :     2.191797357897226   Change is   -0.000005520858505
 Root      3 :     2.192727998140301   Change is   -0.000002312823775
 Root      4 :     2.207451250302653   Change is   -0.000007633278026
 Iteration     7 Dimension    64 NMult    56 NNew      8
 CISAX will form     8 AO SS matrices at one time.
 NMat=     8 NSing=     0 JSym2X=-1.
 Root      1 not converged, maximum delta is    0.000069976246296
 Root      2 not converged, maximum delta is    0.000121255962826
 Root      3 not converged, maximum delta is    0.000091289428280
 Root      4 not converged, maximum delta is    0.000054475337640
 Excitation Energies [eV] at current iteration:
 Root      1 :     2.110532889862091   Change is   -0.000000196886435
 Root      2 :     2.191796933357378   Change is   -0.000000424539848
 Root      3 :     2.192727880333299   Change is   -0.000000117807002
 Root      4 :     2.207450983971552   Change is   -0.000000266331101
 Iteration     8 Dimension    72 NMult    64 NNew      8
 CISAX will form     8 AO SS matrices at one time.
 NMat=     8 NSing=     0 JSym2X=-1.
 Root      1 not converged, maximum delta is    0.000020630843456
 Root      2 not converged, maximum delta is    0.000019207306402
 Root      3 not converged, maximum delta is    0.000035952832537
 Root      4 not converged, maximum delta is    0.000009489528924
 Excitation Energies [eV] at current iteration:
 Root      1 :     2.110532877833065   Change is   -0.000000012029026
 Root      2 :     2.191796905988216   Change is   -0.000000027369163
 Root      3 :     2.192727865003312   Change is   -0.000000015329986
 Root      4 :     2.207450973260503   Change is   -0.000000010711048
 Iteration     9 Dimension    80 NMult    72 NNew      8
 CISAX will form     8 AO SS matrices at one time.
 NMat=     8 NSing=     0 JSym2X=-1.
 Root      1 not converged, maximum delta is    0.000002683819379
 Root      2 not converged, maximum delta is    0.000004069847522
 Root      3 not converged, maximum delta is    0.000005166841081
 Root      4 not converged, maximum delta is    0.000001872781454
 Excitation Energies [eV] at current iteration:
 Root      1 :     2.110532877161939   Change is   -0.000000000671127
 Root      2 :     2.191796904975154   Change is   -0.000000001013061
 Root      3 :     2.192727864032896   Change is   -0.000000000970417
 Root      4 :     2.207450972889696   Change is   -0.000000000370808
 Iteration    10 Dimension    88 NMult    80 NNew      8
 CISAX will form     8 AO SS matrices at one time.
 NMat=     8 NSing=     0 JSym2X=-1.
 Root      1 has converged.
 Root      2 has converged.
 Root      3 has converged.
 Root      4 has converged.
 Excitation Energies [eV] at current iteration:
 Root      1 :     2.110532877131635   Change is   -0.000000000030304
 Root      2 :     2.191796904930484   Change is   -0.000000000044671
 Root      3 :     2.192727863995967   Change is   -0.000000000036928
 Root      4 :     2.207450972879603   Change is   -0.000000000010093
 Convergence achieved on expansion vectors.
 ***********************************************************************
 Excited states from <AA,BB:AA,BB> singles matrix:
 ***********************************************************************
 
 1PDM for each excited state written to RWF  633
 Ground to excited state transition densities written to RWF  633
 Ground to excited state transition electric dipole moments (Au):
       state          X           Y           Z        Dip. S.      Osc.
         1        -0.0000      0.0000      0.0000      0.0000      0.0000
         2         0.0000     -0.0000      0.0000      0.0000      0.0000
         3        -0.0000     -0.0000     -0.0000      0.0000      0.0000
         4        -0.0000      0.0000     -0.0000      0.0000      0.0000
 Ground to excited state transition velocity dipole moments (Au):
       state          X           Y           Z        Dip. S.      Osc.
         1        -0.0000     -0.0000     -0.0000      0.0000      0.0000
         2         0.0000      0.0000     -0.0000      0.0000      0.0000
         3        -0.0000     -0.0000      0.0000      0.0000      0.0000
         4        -0.0000     -0.0000     -0.0000      0.0000      0.0000
 Ground to excited state transition magnetic dipole moments (Au):
       state          X           Y           Z
         1         0.0000     -0.0000     -0.0000
         2         0.0000      0.0000     -0.0000
         3        -0.0000     -0.0000      0.0000
         4         0.0000      0.0000     -0.0000
 Ground to excited state transition velocity quadrupole moments (Au):
       state          XX          YY          ZZ          XY          XZ          YZ
         1         0.0000      0.0000      0.0000      0.0000      0.0000     -0.0000
         2         0.0000     -0.0000      0.0000     -0.0000      0.0000     -0.0000
         3        -0.0000     -0.0000     -0.0000      0.0000     -0.0000     -0.0000
         4         0.0000      0.0000      0.0000      0.0000     -0.0000     -0.0000
 <0|del|b> * <b|rxdel|0> + <0|del|b> * <b|delr+rdel|0>
 Rotatory Strengths (R) in cgs (10**-40 erg-esu-cm/Gauss)
       state          XX          YY          ZZ    R(velocity)    E-M Angle
         1         0.0000     -0.0000     -0.0000     -0.0000       90.00
         2         0.0000     -0.0000      0.0000      0.0000       90.00
         3        -0.0000      0.0000      0.0000      0.0000       90.00
         4         0.0000      0.0000     -0.0000      0.0000       90.00
 1/2[<0|r|b>*<b|rxdel|0> + (<0|rxdel|b>*<b|r|0>)*]
 Rotatory Strengths (R) in cgs (10**-40 erg-esu-cm/Gauss)
       state          XX          YY          ZZ     R(length)
         1         0.0000      0.0000      0.0000      0.0000
         2        -0.0000      0.0000      0.0000     -0.0000
         3        -0.0000     -0.0000      0.0000      0.0000
         4         0.0000     -0.0000     -0.0000     -0.0000
  1/2[<0|del|b>*<b|r|0> + (<0|r|b>*<b|del|0>)*] (Au)
       state          X           Y           Z        Dip. S.   Osc.(frdel)
         1         0.0000     -0.0000     -0.0000     -0.0000     -0.0000
         2         0.0000     -0.0000     -0.0000     -0.0000     -0.0000
         3         0.0000      0.0000     -0.0000     -0.0000     -0.0000
         4         0.0000     -0.0000      0.0000     -0.0000     -0.0000

 Excitation energies and oscillator strengths:
 
 Excited State   1:      Triplet-A1     2.1105 eV  587.45 nm  f=0.0000  <S**2>=2.000
      35 -> 44        -0.43314
      41 -> 44         0.55996
 
 Excited State   2:      Triplet-B2     2.1918 eV  565.67 nm  f=0.0000  <S**2>=2.000
      35 -> 42        -0.37732
      41 -> 42         0.59416
 
 Excited State   3:      Triplet-A2     2.1927 eV  565.43 nm  f=0.0000  <S**2>=2.000
      35 -> 43        -0.36888
      41 -> 43         0.59962
 
 Excited State   4:      Triplet-B1     2.2075 eV  561.66 nm  f=0.0000  <S**2>=2.000
      35 -> 45        -0.39825
      41 -> 45         0.58420
 This state for optimization and/or second-order correction.
 Total Energy, E(TD-HF/TD-DFT) =  -1547.56168481    
 Copying the excited state density for this state as the 1-particle RhoCI density.
 SavETr:  write IOETrn=   770 NScale= 10 NData=  16 NLR=1 NState=    4 LETran=      82.
 The selected state is a triplet.
 CISGrd: IGrad=3 NXY=2 DFT=T
 CISAX will form     1 AO SS matrices at one time.
 NMat=     1 NSing=     0 JSym2X=-1.
 Leave Link  914 at Fri Jun 24 11:55:20 2022, MaxMem=  1048576000 cpu:            1087.3 elap:             272.4
 (Enter /home/pcmt/gaussian/g16.C.01/g16/l1002.exe)
 Minotr:  Closed shell wavefunction.
          Computing CIS/TDA/TD derivatives.
          Using Z-Vector for PSCF gradient.
          Skipping F1 and S1 gradient terms here.
          IDoAtm=11111
          Frozen-core window.
          Direct CPHF calculation.
          Differentiating once with respect to electric field.
                with respect to dipole field.
          Differentiating once with respect to nuclear coordinates.
          Requested convergence is 1.0D-10 RMS, and 1.0D-09 maximum.
          NewPWx=F KeepS1=T KeepF1=T KeepIn=T MapXYZ=F SortEE=F KeepMc=T.
 Keep R1 ints in memory in symmetry-blocked form, NReq=646037315.
 FoFCou: FMM=F IPFlag=           0 FMFlag=           0 FMFlg1=           0
         NFxFlg=           0 DoJE=F BraDBF=F KetDBF=F FulRan=T
         wScrn=  0.000000 ICntrl=       600 IOpCl=  0 I1Cent=           0 NGrid=           0
         NMat0=    1 NMatS0=  32131 NMatT0=    0 NMatD0=    1 NMtDS0=    0 NMtDT0=    0
 Petite list used in FoFCou.
 Two-electron integral symmetry used by symmetrizing perturbed Fock matrices.
          MDV=    1048576000 using IRadAn=       5.
          Solving linear equations separately, MaxMat=       0.
          There are     1 degrees of freedom in the 1st order CPHF.  IDoFFX=0 NUNeed=     1.
 Defaulting to unpruned grid for atomic number  92.
 Defaulting to unpruned grid for atomic number  92.
 Defaulting to unpruned grid for atomic number  92.
 Defaulting to unpruned grid for atomic number  92.
 LinEq1:  Iter=  0 NonCon=     1 RMS=2.65D-02 Max=9.57D-01 NDo=     1
 AX will form     1 AO Fock derivatives at one time.
 LinEq1:  Iter=  1 NonCon=     1 RMS=1.28D-02 Max=5.28D-01 NDo=     1
 LinEq1:  Iter=  2 NonCon=     1 RMS=1.17D-02 Max=5.26D-01 NDo=     1
 LinEq1:  Iter=  3 NonCon=     1 RMS=3.80D-03 Max=9.74D-02 NDo=     1
 LinEq1:  Iter=  4 NonCon=     1 RMS=1.60D-03 Max=5.39D-02 NDo=     1
 LinEq1:  Iter=  5 NonCon=     1 RMS=6.47D-04 Max=1.73D-02 NDo=     1
 LinEq1:  Iter=  6 NonCon=     1 RMS=3.31D-04 Max=7.11D-03 NDo=     1
 LinEq1:  Iter=  7 NonCon=     1 RMS=1.05D-04 Max=2.31D-03 NDo=     1
 LinEq1:  Iter=  8 NonCon=     1 RMS=3.62D-05 Max=8.94D-04 NDo=     1
 LinEq1:  Iter=  9 NonCon=     1 RMS=1.14D-05 Max=3.15D-04 NDo=     1
 LinEq1:  Iter= 10 NonCon=     1 RMS=4.56D-06 Max=1.65D-04 NDo=     1
 LinEq1:  Iter= 11 NonCon=     1 RMS=1.22D-06 Max=3.10D-05 NDo=     1
 LinEq1:  Iter= 12 NonCon=     1 RMS=3.59D-07 Max=1.52D-05 NDo=     1
 LinEq1:  Iter= 13 NonCon=     1 RMS=1.49D-07 Max=3.49D-06 NDo=     1
 LinEq1:  Iter= 14 NonCon=     1 RMS=3.78D-08 Max=1.05D-06 NDo=     1
 LinEq1:  Iter= 15 NonCon=     1 RMS=1.31D-08 Max=3.05D-07 NDo=     1
 LinEq1:  Iter= 16 NonCon=     1 RMS=2.53D-09 Max=6.03D-08 NDo=     1
 LinEq1:  Iter= 17 NonCon=     1 RMS=5.07D-10 Max=1.30D-08 NDo=     1
 LinEq1:  Iter= 18 NonCon=     1 RMS=7.50D-11 Max=1.61D-09 NDo=     1
 LinEq1:  Iter= 19 NonCon=     0 RMS=2.01D-11 Max=5.33D-10 NDo=     1
 Linear equations converged to 1.000D-10 1.000D-09 after    19 iterations.
          There are     1 degrees of freedom in the 1st order CPHF.  IDoFFX=0 NUNeed=     1.
 End of Minotr F.D. properties file   721 does not exist.
 End of Minotr F.D. properties file   722 does not exist.
 End of Minotr F.D. properties file   788 does not exist.
 Leave Link 1002 at Fri Jun 24 11:58:22 2022, MaxMem=  1048576000 cpu:             724.6 elap:             181.9
 (Enter /home/pcmt/gaussian/g16.C.01/g16/l1101.exe)
 Using compressed Sx but separate Hx and Fx, NAtomX=     5.
 Will process      6 centers per pass.
   4 Symmetry operations used in ECPInt.
 ECPInt:  NShTT=    3160 NPrTT=   10748 LenC2=    3025 LenP2D=    7873.
 LDataN:  DoStor=T MaxTD1=10 Len=  848
 Leave Link 1101 at Fri Jun 24 11:58:33 2022, MaxMem=  1048576000 cpu:              18.1 elap:              11.3
 (Enter /home/pcmt/gaussian/g16.C.01/g16/l1102.exe)
 Use density number 6.
 Symmetrizing basis deriv contribution to polar:
 IMax=3 JMax=2 DiffMx= 0.00D+00
 Leave Link 1102 at Fri Jun 24 11:58:34 2022, MaxMem=  1048576000 cpu:               0.3 elap:               0.1
 (Enter /home/pcmt/gaussian/g16.C.01/g16/l1110.exe)
 Forming Gx(P) for the SCF density, NAtomX=     5.
 Integral derivatives from FoFJK, PRISM(SPDF).
 Do as many integral derivatives as possible in FoFJK.
 G2DrvN: MDV=    1048575349.
 G2DrvN: will do     6 centers at a time, making    1 passes.
 Calling FoFCou, ICntrl=  3107 FMM=F I1Cent=   0 AccDes= 0.00D+00.
 FoFJK:  IHMeth= 1 ICntrl=    3107 DoSepK=F KAlg= 0 I1Cent=           0 FoldK=F
 IRaf=         0 NMat=       1 IRICut=       1 DoRegI=T DoRafI=F ISym2E= 1 IDoP0=0 IntGTp=1.
 FoFCou: FMM=F IPFlag=           0 FMFlag=      100000 FMFlg1=           0
         NFxFlg=           0 DoJE=F BraDBF=F KetDBF=F FulRan=T
         wScrn=  0.000000 ICntrl=      3107 IOpCl=  0 I1Cent=           0 NGrid=           0
         NMat0=    1 NMatS0=      1 NMatT0=    0 NMatD0=    1 NMtDS0=    0 NMtDT0=    0
 Petite list used in FoFCou.
 Defaulting to unpruned grid for atomic number  92.
 Defaulting to unpruned grid for atomic number  92.
 Defaulting to unpruned grid for atomic number  92.
 Defaulting to unpruned grid for atomic number  92.
 Forming Gx(P) for generalized density number  6 NAtomX=     5.
 Integral derivatives from FoFJK, PRISM(SPDF).
 Do as many integral derivatives as possible in FoFJK.
 G2DrvN: MDV=    1048575349.
 G2DrvN: will do     6 centers at a time, making    1 passes.
 Calling FoFCou, ICntrl=  3107 FMM=F I1Cent=   0 AccDes= 0.00D+00.
 Forming Gx(T) for CIS/TDA/TD state  4 NAtomX=     5.
 Integral derivatives from FoFJK, PRISM(SPDF).
 Do as many integral derivatives as possible in FoFJK.
 G2DrvN: MDV=    1048575349.
 G2DrvN: will do     6 centers at a time, making    1 passes.
 Calling FoFCou, ICntrl=  3107 FMM=F I1Cent=   0 AccDes= 0.00D+00.
 End of G2Drv F.D. properties file   721 does not exist.
 End of G2Drv F.D. properties file   722 does not exist.
 End of G2Drv F.D. properties file   788 does not exist.
 Leave Link 1110 at Fri Jun 24 12:02:12 2022, MaxMem=  1048576000 cpu:             867.5 elap:             218.2
 (Enter /home/pcmt/gaussian/g16.C.01/g16/l1002.exe)
 Minotr:  Closed shell wavefunction.
          IDoAtm=11111
          Frozen-core window.
          Direct CPHF calculation.
          Differentiating once with respect to electric field.
                with respect to dipole field.
          Differentiating once with respect to nuclear coordinates.
          Requested convergence is 1.0D-08 RMS, and 1.0D-07 maximum.
          Secondary convergence is 1.0D-12 RMS, and 1.0D-12 maximum.
          NewPWx=T KeepS1=T KeepF1=T KeepIn=T MapXYZ=F SortEE=F KeepMc=T.
 Defaulting to unpruned grid for atomic number  92.
         1512 words used for storage of precomputed grid.
 Keep R1 ints in memory in symmetry-blocked form, NReq=646038827.
 FoFCou: FMM=F IPFlag=           0 FMFlag=           0 FMFlg1=           0
         NFxFlg=           0 DoJE=F BraDBF=F KetDBF=F FulRan=T
         wScrn=  0.000000 ICntrl=       600 IOpCl=  0 I1Cent=           0 NGrid=           0
         NMat0=    1 NMatS0=  32131 NMatT0=    0 NMatD0=    1 NMtDS0=    0 NMtDT0=    0
 Petite list used in FoFCou.
          MDV=    1048576000 using IRadAn=       1.
          Solving linear equations simultaneously, MaxMat=       0.
 Defaulting to unpruned grid for atomic number  92.
 Defaulting to unpruned grid for atomic number  92.
 Defaulting to unpruned grid for atomic number  92.
 Defaulting to unpruned grid for atomic number  92.
          There are    18 degrees of freedom in the 1st order CPHF.  IDoFFX=6 NUNeed=    18.
     15 vectors produced by pass  0 Test12= 4.83D-14 5.56D-09 XBig12= 1.02D+02 4.99D+00.
 AX will form    15 AO Fock derivatives at one time.
     15 vectors produced by pass  1 Test12= 4.83D-14 5.56D-09 XBig12= 4.45D+01 2.01D+00.
     15 vectors produced by pass  2 Test12= 4.83D-14 5.56D-09 XBig12= 6.65D+00 5.79D-01.
     15 vectors produced by pass  3 Test12= 4.83D-14 5.56D-09 XBig12= 3.63D-01 1.92D-01.
     15 vectors produced by pass  4 Test12= 4.83D-14 5.56D-09 XBig12= 1.12D-02 4.22D-02.
     15 vectors produced by pass  5 Test12= 4.83D-14 5.56D-09 XBig12= 6.55D-04 8.71D-03.
     15 vectors produced by pass  6 Test12= 4.83D-14 5.56D-09 XBig12= 1.23D-05 6.40D-04.
     15 vectors produced by pass  7 Test12= 4.83D-14 5.56D-09 XBig12= 1.64D-07 1.27D-04.
     12 vectors produced by pass  8 Test12= 4.83D-14 5.56D-09 XBig12= 2.36D-09 1.22D-05.
      8 vectors produced by pass  9 Test12= 4.83D-14 5.56D-09 XBig12= 2.75D-11 1.17D-06.
      4 vectors produced by pass 10 Test12= 4.83D-14 5.56D-09 XBig12= 4.76D-13 1.70D-07.
      2 vectors produced by pass 11 Test12= 4.83D-14 5.56D-09 XBig12= 4.81D-15 1.73D-08.
 InvSVY:  IOpt=1 It=  1 EMax= 1.11D-15
 Solved reduced A of dimension   146 with    15 vectors.
 FullF1:  Do perturbations      1 to      18.
 Isotropic polarizability for W=    0.000000       72.82 Bohr**3.
 Saving first derivative matrices.
 End of Minotr F.D. properties file   721 does not exist.
 End of Minotr F.D. properties file   722 does not exist.
 End of Minotr F.D. properties file   788 does not exist.
 Leave Link 1002 at Fri Jun 24 12:06:15 2022, MaxMem=  1048576000 cpu:             974.4 elap:             243.6
 (Enter /home/pcmt/gaussian/g16.C.01/g16/l1014.exe)
 Defaulting to unpruned grid for atomic number  92.
 This link is doing    18 degrees of freedom
 Form MO integral derivatives with frozen-active canonical formalism.
 CISSec: MDV=    1048573280
 Doing TD-HF/TD-DFT second derivatives, IDoFFX=6 IOneXC=4 IRadAn=         1.
 Frozen orbitals handled with amplitudes over full window.
 Frozen-core window:  NFC=  21 NFV=   0.
 Symmetry is being used.
 Keep R1, R2, and R3 ints in memory in symmetry-blocked form, NReq=646101548.
 FoFCou: FMM=F IPFlag=           0 FMFlag=           0 FMFlg1=           0
         NFxFlg=           0 DoJE=F BraDBF=F KetDBF=F FulRan=T
         wScrn=  0.000000 ICntrl=       600 IOpCl=  0 I1Cent=           0 NGrid=           0
         NMat0=    1 NMatS0=  32131 NMatT0=    0 NMatD0=    1 NMtDS0=    0 NMtDT0=    0
 Petite list used in FoFCou.
 The selected state is a triplet.
 CISGrX: IGrad=3 NXY=2 DFT=T
 CISAX will form    18 AO SS matrices at one time.
 Defaulting to unpruned grid for atomic number  92.
 Defaulting to unpruned grid for atomic number  92.
 Defaulting to unpruned grid for atomic number  92.
 Defaulting to unpruned grid for atomic number  92.
 NMat=    18 NSing=     0 JSym2X= 2.
     15 vectors produced by pass  0 Test12= 4.71D-14 5.56D-09 XBig12= 6.38D+01 7.90D+00.
 AX will form    15 AO Fock derivatives at one time.
     15 vectors produced by pass  1 Test12= 4.71D-14 5.56D-09 XBig12= 1.84D+01 3.22D+00.
     15 vectors produced by pass  2 Test12= 4.71D-14 5.56D-09 XBig12= 1.09D+00 4.81D-01.
     15 vectors produced by pass  3 Test12= 4.71D-14 5.56D-09 XBig12= 1.92D-02 7.13D-02.
     15 vectors produced by pass  4 Test12= 4.71D-14 5.56D-09 XBig12= 2.94D-04 4.57D-03.
     15 vectors produced by pass  5 Test12= 4.71D-14 5.56D-09 XBig12= 5.43D-06 8.48D-04.
     15 vectors produced by pass  6 Test12= 4.71D-14 5.56D-09 XBig12= 1.23D-07 1.06D-04.
     14 vectors produced by pass  7 Test12= 4.71D-14 5.56D-09 XBig12= 2.00D-09 1.56D-05.
      6 vectors produced by pass  8 Test12= 4.71D-14 5.56D-09 XBig12= 1.94D-11 1.86D-06.
      4 vectors produced by pass  9 Test12= 4.71D-14 5.56D-09 XBig12= 2.68D-13 1.71D-07.
      1 vectors produced by pass 10 Test12= 4.71D-14 5.56D-09 XBig12= 2.00D-15 1.03D-08.
 InvSVY:  IOpt=1 It=  1 EMax= 1.55D-15
 Solved reduced A of dimension   130 with    15 vectors.
 Tx.T = -2.26D-05 for pert.     3
 Tx.T = -7.22D-07 for pert.    11
 Tx.T =  7.22D-07 for pert.     8
 Tx.T =  6.01D-07 for pert.     6
 Tx.T = -4.25D-07 for pert.    16
 Tx.T =  4.25D-07 for pert.    13
 Tx.T = -4.22D-07 for pert.    15
 Tx.T = -4.22D-07 for pert.    18
 Tx.T =  1.21D-07 for pert.    12
 Tx.T =  1.21D-07 for pert.     9
 SavDET:  read IOETrn=   770 NScale= 10 NData=  16 NLR=1 NState=    4 NDeriv=    0 LETran=      82.
 SavDET: write IOETrn=   770 NScale= 10 NData=  16 NLR=1 NState=    4 NDeriv=   18 LETran=     370.
 TDDxLx will form    18 C1x/S1x matrices at one time.
 Interchange theorem applied.
 R6Disp: Adding Grimme-D3(BJ) dispersion energy 1st derivatives to the gradient.
 FoFJK:  IHMeth= 1 ICntrl=    5100 DoSepK=F KAlg= 0 I1Cent=           0 FoldK=F
 IRaf=         0 NMat=       1 IRICut=       1 DoRegI=T DoRafI=F ISym2E= 0 IDoP0=0 IntGTp=1.
 Leave Link 1014 at Fri Jun 24 12:13:13 2022, MaxMem=  1048576000 cpu:            1664.2 elap:             417.4
 (Enter /home/pcmt/gaussian/g16.C.01/g16/l601.exe)
 Copying SCF densities to generalized density rwf, IOpCl= 0 IROHF=0.

 **********************************************************************

            Population analysis using the SCF Density.

 **********************************************************************

 Orbital symmetries:
       Occupied  (A1) (B1) (B2) (A1) (A1) (A1) (B1) (A1) (B1) (B2)
                 (B1) (A1) (B1) (A1) (B2) (A2) (A1) (B1) (B2) (A2)
                 (A1) (A1) (B2) (A1) (B1) (A1) (A1) (B1) (B2) (B2)
                 (A2) (A1) (B1) (A1) (B2) (A1) (B1) (A1) (B1) (A2)
                 (B2)
       Virtual   (A1) (B1) (B2) (A2) (A1) (B1) (A1) (A1) (B1) (B2)
                 (A1) (B2) (B1) (A1) (A2) (B2) (B2) (A1) (A1) (B1)
                 (A2) (B1) (A1) (B2) (A1) (B2) (B1) (A1) (A2) (B1)
                 (A1) (B2) (A2) (B1) (A1) (B2) (A2) (B1) (A1) (B1)
                 (B2) (A1) (A1) (B2) (A1) (B1) (A2) (A1) (B2) (B1)
                 (A1) (B1) (A2) (B2) (A1) (B2) (A1) (B1) (A1) (A1)
                 (B1) (B1) (A2) (A1) (B2) (B2) (A1) (B1) (A1) (B1)
                 (B2) (A2) (B2) (A2) (A1) (A1) (A2) (A2) (B2) (B1)
                 (B2) (A1) (B1) (B1) (A1) (B2) (A1) (B2) (B1) (A2)
                 (B1) (A1) (A2) (B2) (A1) (B1) (A2) (B2) (A1) (B1)
                 (B1) (B2) (A1) (A2) (B1) (A1) (A1) (B2) (B2) (A1)
                 (B1) (A2) (A1) (B1) (A2) (A1) (B2) (B1) (B2) (A2)
                 (A1) (B1) (A1) (B2) (A2) (A1) (A1) (B1) (B2) (A1)
                 (B2) (B2) (B2) (A2) (B1) (A1) (A1) (B1) (A1) (B1)
                 (A2) (A2) (B2) (B1) (A1) (A1) (B2) (B2) (A2) (A1)
                 (B2) (B1) (A1) (B1) (A1) (B1) (A2) (B2) (A1) (A2)
                 (B1) (B2) (A1) (A2) (A1) (B1) (B2) (B2) (A1) (B1)
                 (A1) (B2) (A2) (A1) (B2) (A1) (A2) (B2) (B1) (A1)
                 (A1) (A2) (B1) (B2) (A1) (B1) (A2) (B2) (B1) (A1)
                 (A1) (B1) (A2) (B2) (A1) (A1) (B1) (B2) (B1) (A1)
                 (A1) (A1) (B2) (A1) (B1) (B2) (A1) (A1) (B1) (B2)
                 (A1) (A1)
 The electronic state is 1-A1.
 Alpha  occ. eigenvalues -- -101.68724-101.68724 -19.27864 -19.27864 -12.18057
 Alpha  occ. eigenvalues --   -9.51389  -9.51389  -7.61827  -7.61655  -7.58411
 Alpha  occ. eigenvalues --   -7.24336  -7.24336  -7.24259  -7.24259  -7.24125
 Alpha  occ. eigenvalues --   -7.24125  -3.98137  -3.98093  -3.96728  -3.96632
 Alpha  occ. eigenvalues --   -3.95948  -1.98647  -1.24652  -1.05723  -1.03018
 Alpha  occ. eigenvalues --   -0.98724  -0.80777  -0.80137  -0.77391  -0.45727
 Alpha  occ. eigenvalues --   -0.45523  -0.44852  -0.43297  -0.43014  -0.40069
 Alpha  occ. eigenvalues --   -0.36967  -0.36072  -0.34755  -0.33580  -0.33507
 Alpha  occ. eigenvalues --   -0.32000
 Alpha virt. eigenvalues --   -0.15984  -0.15954  -0.15361  -0.15196  -0.11425
 Alpha virt. eigenvalues --   -0.10538  -0.05439  -0.02794  -0.01773   0.00878
 Alpha virt. eigenvalues --    0.03304   0.03987   0.05043   0.05779   0.07908
[...]
      1  0.465771D+00
      2 -0.188072D-01  0.465771D+00
      3  0.160704D-01  0.160704D-01  0.106437D+00
      4  0.160704D-01  0.160704D-01  0.364899D-02  0.106437D+00
      5 -0.599316D-02 -0.105417D-02 -0.775190D-03  0.305751D-03  0.248929D-01
      6 -0.106849D-01  0.579277D-03  0.625956D-03 -0.754033D-03 -0.181481D-01
      7 -0.105417D-02 -0.599316D-02 -0.777561D-03  0.308122D-03 -0.406351D-02
      8  0.579283D-03 -0.106849D-01  0.630073D-03 -0.758150D-03  0.996004D-02
      9  0.150991D-02  0.150991D-02 -0.706141D-02 -0.671828D-02  0.243767D-02
     10 -0.704732D-02 -0.704733D-02 -0.155275D-02  0.613873D-03  0.208294D-01
     11  0.121300D-01  0.121300D-01  0.839912D-03  0.303666D-02  0.212856D-02
     12 -0.904292D-02 -0.753462D-03 -0.149090D-02 -0.707856D-03  0.211723D-01
     13  0.753456D-03  0.904293D-02  0.149223D-02  0.706534D-03  0.115935D-02
                6             7             8             9            10 
      6  0.680541D-01
      7  0.996005D-02  0.248930D-01
      8 -0.315736D-01 -0.181482D-01  0.680542D-01
      9 -0.371126D-02  0.243768D-02 -0.371128D-02  0.497324D-01
     10 -0.818802D-02  0.208295D-01 -0.818812D-02  0.487535D-02  0.416589D-01
     11 -0.348283D-01  0.212861D-02 -0.348284D-01 -0.570780D-02  0.425717D-02
     12 -0.374430D-03 -0.115934D-02  0.111877D-02  0.754580D-02  0.200130D-01
     13 -0.111879D-02 -0.211724D-01  0.374484D-03 -0.754580D-02 -0.200130D-01
               11            12            13 
     11  0.727845D-01
     12 -0.819261D-02  0.228747D-01
     13  0.819258D-02 -0.206555D-04  0.228748D-01
 Leave Link  716 at Fri Jun 24 12:17:23 2022, MaxMem=  1048576000 cpu:               0.2 elap:               0.1
 (Enter /home/pcmt/gaussian/g16.C.01/g16/l103.exe)

 GradGradGradGradGradGradGradGradGradGradGradGradGradGradGradGradGradGrad
 Berny optimization.
 Red2BG is reusing G-inverse.
 Internal  Forces:  Max     0.007827379 RMS     0.003595445
 Search for a local minimum.
 Step number   1 out of a maximum of    2
 All quantities printed in internal units (Hartrees-Bohrs-Radians)
 Second derivative matrix not updated -- analytic derivatives used.
 The second derivative matrix:
                          R1        R2        R3        R4        A1
           R1           0.46577
           R2          -0.01881   0.46577
           R3           0.01607   0.01607   0.10644
           R4           0.01607   0.01607   0.00365   0.10644
           A1          -0.00599  -0.00105  -0.00078   0.00031   0.02489
           A2          -0.01068   0.00058   0.00063  -0.00075  -0.01815
           A3          -0.00105  -0.00599  -0.00078   0.00031  -0.00406
           A4           0.00058  -0.01068   0.00063  -0.00076   0.00996
           A5           0.00151   0.00151  -0.00706  -0.00672   0.00244
           A6          -0.00705  -0.00705  -0.00155   0.00061   0.02083
           A7           0.01213   0.01213   0.00084   0.00304   0.00213
           D1          -0.00904  -0.00075  -0.00149  -0.00071   0.02117
           D2           0.00075   0.00904   0.00149   0.00071   0.00116
                          A2        A3        A4        A5        A6
           A2           0.06805
           A3           0.00996   0.02489
           A4          -0.03157  -0.01815   0.06805
           A5          -0.00371   0.00244  -0.00371   0.04973
           A6          -0.00819   0.02083  -0.00819   0.00488   0.04166
           A7          -0.03483   0.00213  -0.03483  -0.00571   0.00426
           D1          -0.00037  -0.00116   0.00112   0.00755   0.02001
           D2          -0.00112  -0.02117   0.00037  -0.00755  -0.02001
                          A7        D1        D2
           A7           0.07278
           D1          -0.00819   0.02287
           D2           0.00819  -0.00002   0.02287
 ITU=  0
     Eigenvalues ---    0.04071   0.04582   0.08496   0.10206   0.10901
     Eigenvalues ---    0.11021   0.11054   0.45183   0.48510
 Angle between quadratic step and forces=  43.57 degrees.
 Linear search not attempted -- first point.
 Iteration  1 RMS(Cart)=  0.04785536 RMS(Int)=  0.00062699
 Iteration  2 RMS(Cart)=  0.00056974 RMS(Int)=  0.00026783
 Iteration  3 RMS(Cart)=  0.00000016 RMS(Int)=  0.00026783
 ITry= 1 IFail=0 DXMaxC= 8.48D-02 DCOld= 1.00D+10 DXMaxT= 3.00D-01 DXLimC= 3.00D+00 Rises=F
 Variable       Old X    -DE/DX   Delta X   Delta X   Delta X     New X
                                 (Linear)    (Quad)   (Total)
    R1        3.33882  -0.00783   0.00000  -0.01911  -0.01911   3.31971
    R2        3.33882  -0.00783   0.00000  -0.01911  -0.01911   3.31971
    R3        4.79611  -0.00273   0.00000  -0.01856  -0.01856   4.77755
    R4        4.79611  -0.00273   0.00000  -0.01857  -0.01857   4.77754
    A1        1.66012  -0.00108   0.00000  -0.01825  -0.01809   1.64203
    A2        1.66012  -0.00158   0.00000  -0.01843  -0.01799   1.64213
    A3        1.66012  -0.00108   0.00000  -0.01825  -0.01809   1.64203
    A4        1.66012  -0.00158   0.00000  -0.01843  -0.01799   1.64213
    A5        1.83140   0.00115   0.00000   0.03255   0.03269   1.86408
    A6        3.32023  -0.00217   0.00000  -0.03650  -0.03618   3.28406
    A7        2.90792   0.00362   0.00000   0.04069   0.04100   2.94892
    D1        1.68763  -0.00143   0.00000  -0.02020  -0.02057   1.66706
    D2       -1.68763   0.00143   0.00000   0.02020   0.02057  -1.66706
         Item               Value     Threshold  Converged?
 Maximum Force            0.007827     0.000450     NO 
 RMS     Force            0.003595     0.000300     NO 
 Maximum Displacement     0.084819     0.001800     NO 
 RMS     Displacement     0.047862     0.001200     NO 
 Predicted change in Energy=-4.101746D-04
                           ----------------------------
                           ! Non-Optimized Parameters !
                           ! (Angstroms and Degrees)  !
 --------------------------                            --------------------------
 ! Name  Definition              Value          Derivative Info.                !
 --------------------------------------------------------------------------------
 ! R1    R(1,2)                  1.7567         -DE/DX =   -0.0078              !
 ! R2    R(1,3)                  1.7567         -DE/DX =   -0.0078              !
 ! R3    R(1,4)                  2.5282         -DE/DX =   -0.0027              !
 ! R4    R(1,5)                  2.5282         -DE/DX =   -0.0027              !
 ! A1    A(2,1,4)               94.0813         -DE/DX =   -0.0011              !
 ! A2    A(2,1,5)               94.0869         -DE/DX =   -0.0016              !
 ! A3    A(3,1,4)               94.0813         -DE/DX =   -0.0011              !
 ! A4    A(3,1,5)               94.0869         -DE/DX =   -0.0016              !
 ! A5    A(4,1,5)              106.8041         -DE/DX =    0.0011              !
 ! A6    L(2,1,3,4,-1)         188.1627         -DE/DX =   -0.0022              !
 ! A7    L(2,1,3,4,-2)         168.9609         -DE/DX =    0.0036              !
 ! D1    D(2,1,5,4)             95.5155         -DE/DX =   -0.0014              !
 ! D2    D(3,1,5,4)            -95.5155         -DE/DX =    0.0014              !
 --------------------------------------------------------------------------------
 GradGradGradGradGradGradGradGradGradGradGradGradGradGradGradGradGradGrad

 Leave Link  103 at Fri Jun 24 12:17:23 2022, MaxMem=  1048576000 cpu:               0.2 elap:               0.1
 (Enter /home/pcmt/gaussian/g16.C.01/g16/l9999.exe)
 -------------------------------------------------------------------
 Center     Atomic                Nonadiabatic Coup. (Bohr^-1)
 Number     Number              X              Y              Z
 -------------------------------------------------------------------
      1       92           0.000000000    0.000000000   -0.442366091
      2        8          -0.000000000    0.000000000    0.156050767
      3        8          -0.000000000   -0.000000000    0.156050767
      4       17          -0.000000000    0.026386064    0.065132279
      5       17           0.000000000   -0.026386064    0.065132279
 -------------------------------------------------------------------
 Cartesian Nonad. Coup.:  Max     0.442366091 RMS     0.130196856
 Electronic transition elements 
                 1             2             3             4 
      1  -0.154757D+04 -0.154756D+04 -0.154756D+04 -0.154756D+04
      2   0.000000D+00  0.000000D+00  0.000000D+00  0.000000D+00
      3   0.000000D+00  0.000000D+00  0.000000D+00  0.000000D+00
      4   0.000000D+00  0.000000D+00  0.000000D+00  0.000000D+00
      5   0.000000D+00  0.000000D+00  0.000000D+00  0.000000D+00
      6   0.000000D+00  0.000000D+00  0.000000D+00  0.000000D+00
      7   0.000000D+00  0.000000D+00  0.000000D+00  0.000000D+00
      8   0.000000D+00  0.000000D+00  0.000000D+00  0.000000D+00
      9   0.000000D+00  0.000000D+00  0.000000D+00  0.000000D+00
     10   0.000000D+00  0.000000D+00  0.000000D+00  0.000000D+00
     11   0.000000D+00  0.000000D+00  0.000000D+00  0.000000D+00
     12   0.000000D+00  0.000000D+00  0.000000D+00  0.000000D+00
     13   0.000000D+00  0.000000D+00  0.000000D+00  0.000000D+00
     14   0.000000D+00  0.000000D+00  0.000000D+00  0.000000D+00
     15   0.000000D+00  0.000000D+00  0.000000D+00  0.000000D+00
     16   0.000000D+00  0.000000D+00  0.000000D+00  0.000000D+00
 Electronic Transition Derivatives 
                 1             2             3             4             5 
      1   0.000000D+00  0.000000D+00  0.000000D+00  0.000000D+00  0.000000D+00
      2   0.000000D+00  0.000000D+00  0.000000D+00  0.000000D+00  0.000000D+00
      3   0.000000D+00  0.000000D+00  0.000000D+00  0.000000D+00  0.000000D+00
      4   0.000000D+00  0.000000D+00  0.000000D+00  0.000000D+00  0.000000D+00
      5   0.000000D+00  0.000000D+00  0.000000D+00  0.000000D+00  0.000000D+00
      6   0.000000D+00  0.000000D+00  0.000000D+00  0.000000D+00  0.000000D+00
      7   0.000000D+00  0.000000D+00  0.000000D+00  0.000000D+00  0.000000D+00
      8   0.000000D+00  0.000000D+00  0.000000D+00  0.000000D+00  0.000000D+00
      9   0.000000D+00  0.000000D+00  0.000000D+00  0.000000D+00  0.000000D+00
     10   0.000000D+00  0.000000D+00  0.000000D+00  0.000000D+00  0.000000D+00
     11   0.000000D+00  0.000000D+00  0.000000D+00  0.000000D+00  0.000000D+00
     12   0.000000D+00  0.000000D+00  0.000000D+00  0.000000D+00  0.000000D+00
     13   0.000000D+00  0.000000D+00  0.000000D+00  0.000000D+00  0.000000D+00
     14   0.000000D+00  0.000000D+00  0.000000D+00  0.000000D+00  0.000000D+00
     15   0.000000D+00  0.000000D+00  0.000000D+00  0.000000D+00  0.000000D+00
     16   0.000000D+00  0.000000D+00  0.000000D+00  0.000000D+00  0.000000D+00
                 6             7             8             9            10 
      1   0.000000D+00  0.000000D+00  0.000000D+00  0.000000D+00  0.000000D+00
      2   0.000000D+00  0.000000D+00  0.000000D+00  0.000000D+00  0.000000D+00
      3   0.000000D+00  0.000000D+00  0.000000D+00  0.000000D+00  0.000000D+00
      4   0.000000D+00  0.000000D+00  0.000000D+00  0.000000D+00  0.000000D+00
      5   0.000000D+00  0.000000D+00  0.000000D+00  0.000000D+00  0.000000D+00
      6   0.000000D+00  0.000000D+00  0.000000D+00  0.000000D+00  0.000000D+00
      7   0.000000D+00  0.000000D+00  0.000000D+00  0.000000D+00  0.000000D+00
      8   0.000000D+00  0.000000D+00  0.000000D+00  0.000000D+00  0.000000D+00
      9   0.000000D+00  0.000000D+00  0.000000D+00  0.000000D+00  0.000000D+00
     10   0.000000D+00  0.000000D+00  0.000000D+00  0.000000D+00  0.000000D+00
     11   0.000000D+00  0.000000D+00  0.000000D+00  0.000000D+00  0.000000D+00
     12   0.000000D+00  0.000000D+00  0.000000D+00  0.000000D+00  0.000000D+00
     13   0.000000D+00  0.000000D+00  0.000000D+00  0.000000D+00  0.000000D+00
     14   0.000000D+00  0.000000D+00  0.000000D+00  0.000000D+00  0.000000D+00
     15   0.000000D+00  0.000000D+00  0.000000D+00  0.000000D+00  0.000000D+00
     16   0.000000D+00  0.000000D+00  0.000000D+00  0.000000D+00  0.000000D+00
                11            12            13            14            15 
      1   0.000000D+00  0.000000D+00  0.000000D+00  0.000000D+00  0.000000D+00
      2   0.000000D+00  0.000000D+00  0.000000D+00  0.000000D+00  0.000000D+00
      3   0.000000D+00  0.000000D+00  0.000000D+00  0.000000D+00  0.000000D+00
      4   0.000000D+00  0.000000D+00  0.000000D+00  0.000000D+00  0.000000D+00
      5   0.000000D+00  0.000000D+00  0.000000D+00  0.000000D+00  0.000000D+00
      6   0.000000D+00  0.000000D+00  0.000000D+00  0.000000D+00  0.000000D+00
      7   0.000000D+00  0.000000D+00  0.000000D+00  0.000000D+00  0.000000D+00
      8   0.000000D+00  0.000000D+00  0.000000D+00  0.000000D+00  0.000000D+00
      9   0.000000D+00  0.000000D+00  0.000000D+00  0.000000D+00  0.000000D+00
     10   0.000000D+00  0.000000D+00  0.000000D+00  0.000000D+00  0.000000D+00
     11   0.000000D+00  0.000000D+00  0.000000D+00  0.000000D+00  0.000000D+00
     12   0.000000D+00  0.000000D+00  0.000000D+00  0.000000D+00  0.000000D+00
     13   0.000000D+00  0.000000D+00  0.000000D+00  0.000000D+00  0.000000D+00
     14   0.000000D+00  0.000000D+00  0.000000D+00  0.000000D+00  0.000000D+00
     15   0.000000D+00  0.000000D+00  0.000000D+00  0.000000D+00  0.000000D+00
     16   0.000000D+00  0.000000D+00  0.000000D+00  0.000000D+00  0.000000D+00
                16            17            18 
      1   0.000000D+00  0.000000D+00  0.000000D+00
      2   0.000000D+00  0.000000D+00  0.000000D+00
      3   0.000000D+00  0.000000D+00  0.000000D+00
      4   0.000000D+00  0.000000D+00  0.000000D+00
      5   0.000000D+00  0.000000D+00  0.000000D+00
      6   0.000000D+00  0.000000D+00  0.000000D+00
      7   0.000000D+00  0.000000D+00  0.000000D+00
      8   0.000000D+00  0.000000D+00  0.000000D+00
      9   0.000000D+00  0.000000D+00  0.000000D+00
     10   0.000000D+00  0.000000D+00  0.000000D+00
     11   0.000000D+00  0.000000D+00  0.000000D+00
     12   0.000000D+00  0.000000D+00  0.000000D+00
     13   0.000000D+00  0.000000D+00  0.000000D+00
     14   0.000000D+00  0.000000D+00  0.000000D+00
     15   0.000000D+00  0.000000D+00  0.000000D+00
     16   0.000000D+00  0.000000D+00  0.000000D+00

 ----------------------------------------------------------------------

 Electric dipole moment (input orientation):
 (Debye = 10**-18 statcoulomb cm , SI units = C m)
                  (au)            (Debye)         (10**-30 SI)
   Tot        0.174086D+01      0.442482D+01      0.147596D+02
   x          0.000000D+00      0.000000D+00      0.000000D+00
   y          0.174086D+01      0.442482D+01      0.147596D+02
   z          0.000000D+00      0.000000D+00      0.000000D+00

 Dipole polarizability, Alpha (input orientation).
 (esu units = cm**3 , SI units = C**2 m**2 J**-1)
 Alpha(0;0):
               (au)            (10**-24 esu)      (10**-40 SI)
   iso        0.949172D+02      0.140653D+02      0.156497D+02
   aniso      0.778949D+02      0.115428D+02      0.128431D+02
   xx         0.664684D+02      0.984960D+01      0.109592D+02
   yx         0.000000D+00      0.000000D+00      0.000000D+00
   yy         0.715180D+02      0.105979D+02      0.117917D+02
   zx         0.000000D+00      0.000000D+00      0.000000D+00
   zy         0.000000D+00      0.000000D+00      0.000000D+00
   zz         0.146765D+03      0.217484D+02      0.241983D+02

 ----------------------------------------------------------------------

 Dipole orientation:
    92          0.00000000          0.00000000          0.48427789
     8         -3.30283770          0.00000000          0.97313219
     8          3.30283770          0.00000000          0.97313219
    17         -0.00000000          3.80326094         -2.43768990
    17         -0.00000000         -3.80326094         -2.43768990

 Electric dipole moment (dipole orientation):
 (Debye = 10**-18 statcoulomb cm , SI units = C m)
                  (au)            (Debye)         (10**-30 SI)
   Tot        0.174086D+01      0.442482D+01      0.147596D+02
   x          0.000000D+00      0.000000D+00      0.000000D+00
   y          0.000000D+00      0.000000D+00      0.000000D+00
   z          0.174086D+01      0.442482D+01      0.147596D+02

 Dipole polarizability, Alpha (dipole orientation).
 (esu units = cm**3 , SI units = C**2 m**2 J**-1)
 Alpha(0;0):
               (au)            (10**-24 esu)      (10**-40 SI)
   iso        0.949172D+02      0.140653D+02      0.156497D+02
   aniso      0.778949D+02      0.115428D+02      0.128431D+02
   xx         0.664684D+02      0.984960D+01      0.109592D+02
   yx         0.000000D+00      0.000000D+00      0.000000D+00
   yy         0.146765D+03      0.217484D+02      0.241983D+02
   zx         0.000000D+00      0.000000D+00      0.000000D+00
   zy         0.000000D+00      0.000000D+00      0.000000D+00
   zz         0.715180D+02      0.105979D+02      0.117917D+02

 ----------------------------------------------------------------------

 Test job not archived.
 1\1\GINC-U-4-0\Freq\RPBE1PBE TD-FC\Gen\Cl2O2U1\VALLET\24-Jun-2022\0\\#
 p PBE1PBE/GEN GFInput GFPrint 5D 7F Pseudo=Read IOP(2/9=2, 4/69=2, 6/7
 =3, 8/10=91, 8/37=22, 8/38=0) EmpiricalDispersion=GD3BJ Symm=(Loose) I
 nt=(UltraFine) Guess=(CheckPoint) Geom=CheckPoint Scf=(NoVarAcc,MaxCyc
 le=100,conver=8) td=(triplets,nstates=4,root=4) Freq\\[UO2Cl4]2- - PBE
 0+D3BJ - ES\\0,1\U,0.,0.2562688224,0.\O,-1.7477864416,0.5149593771,0.\
 O,1.7477864416,0.5149593771,0.\Cl,0.,-1.2899699399,-2.0125990189\Cl,0.
 ,-1.2899699399,2.0125990189\\Version=ES64L-G16RevC.01\State=1-A1\HF=-1
 547.6428071\RMSD=2.762e-09\RMSF=3.198e-03\ZeroPoint=0.0075016\Thermal=
 0.0143259\ETot=-1547.5473589\HTot=-1547.5464147\GTot=-1547.5877743\Dip
 ole=0.,1.7408573,0.\DipoleDeriv=3.2714922,-0.0000001,0.,0.,1.6499903,0
 .,0.,0.,2.1311589,-1.431547,0.2516337,0.,0.2949118,-0.4099389,0.,0.,0.
 ,-0.4071598,-1.431547,-0.2516335,0.,-0.2949118,-0.4099389,0.,0.,0.,-0.
 4071613,-0.2041991,0.,0.0000006,0.,-0.4150562,-0.2247804,0.,-0.178519,
 -0.6584189,-0.2041991,0.,-0.0000006,0.,-0.4150562,0.2247804,0.,0.17851
 9,-0.6584189\Polar=66.4684084,0.0000004,71.5179792,0.,0.,146.7652827\P
 G=C02V [C2(U1),SGV(O2),SGV'(Cl2)]\NImag=0\\0.99348920,-0.00000001,0.16
 025587,0.,0.,0.21171930,-0.48248160,0.02750159,0.,0.45909470,0.0582663
 6,-0.03395089,0.,-0.05513729,0.02561556,0.,0.,-0.03767539,0.,0.,0.0251
 9169,-0.48248162,-0.02750157,0.,0.01688964,-0.00854497,0.,0.45909472,-
 0.05826634,-0.03395089,0.,0.00854496,0.00898867,0.,0.05513728,0.025615
 56,0.,0.,-0.03767847,0.,0.,0.00943500,0.,0.,0.02519162,-0.01426299,0.,
 0.00000120,0.00324863,0.00270795,0.00579526,0.00324863,-0.00270795,-0.
 00579523,0.00912416,0.,-0.04617704,-0.04798363,0.00954537,-0.00032667,
 -0.00062011,-0.00954537,-0.00032667,-0.00061916,-0.00000037,0.04265459
 ,0.,-0.04822084,-0.06818272,0.01287370,-0.00163534,0.00152435,-0.01287
 369,-0.00163534,0.00152593,-0.00000062,0.05035721,0.06671779,-0.014262
 99,0.,-0.00000120,0.00324863,0.00270795,-0.00579526,0.00324863,-0.0027
 0795,0.00579523,-0.00135843,0.00000037,0.00000062,0.00912416,0.,-0.046
 17704,0.04798363,0.00954537,-0.00032667,0.00062011,-0.00954537,-0.0003
 2667,0.00061916,0.00000037,0.00417579,0.00113431,-0.00000037,0.0426545
 9,0.,0.04822084,-0.06818272,-0.01287370,0.00163534,0.00152435,0.012873
 69,0.00163534,0.00152593,-0.00000062,-0.00113431,-0.00158535,0.0000006
 2,-0.05035721,0.06671779\\0.,-0.00267368,0.,-0.00743758,0.00320970,0.,
 0.00743758,0.00320970,0.,0.,-0.00187286,-0.00200526,0.,-0.00187286,0.0
 0200526\\\@


 PATIENCE IS THE ABILITY TO IDLE YOUR MOTOR WHEN
 YOU FEEL LIKE STRIPPING YOUR GEARS.
 Job cpu time:       0 days  1 hours 53 minutes 58.8 seconds.
 Elapsed time:       0 days  0 hours 29 minutes 13.0 seconds.
 File lengths (MBytes):  RWF=    261 Int=      0 D2E=      0 Chk=     15 Scr=      1
 Normal termination of Gaussian 16 at Fri Jun 24 12:17:23 2022.
