 Entering Gaussian System, Link 0=/home/pcmt/gaussian/g16.C.01/g16/g16
 AtFile(1): /home/vallet/basis/U-ECP60MWB_SEG
 AtFile(1): /home/vallet/basis/U-ECP60MWB
 Initial command:
 /home/pcmt/gaussian/g16.C.01/g16/l1.exe "/state/partition2/vallet/866028.phlam-s-sakura/Gau-78947.inp" -scrdir="/state/partition2/vallet/866028.phlam-s-sakura/"
 Entering Link 1 = /home/pcmt/gaussian/g16.C.01/g16/l1.exe PID=     78951.
  
 Copyright (c) 1988-2019, Gaussian, Inc.  All Rights Reserved.
  
 This is part of the Gaussian(R) 16 program.  It is based on
 the Gaussian(R) 09 system (copyright 2009, Gaussian, Inc.),
 the Gaussian(R) 03 system (copyright 2003, Gaussian, Inc.),
 the Gaussian(R) 98 system (copyright 1998, Gaussian, Inc.),
 the Gaussian(R) 94 system (copyright 1995, Gaussian, Inc.),
 the Gaussian 92(TM) system (copyright 1992, Gaussian, Inc.),
 the Gaussian 90(TM) system (copyright 1990, Gaussian, Inc.),
 the Gaussian 88(TM) system (copyright 1988, Gaussian, Inc.),
 the Gaussian 86(TM) system (copyright 1986, Carnegie Mellon
 University), and the Gaussian 82(TM) system (copyright 1983,
 Carnegie Mellon University). Gaussian is a federally registered
 trademark of Gaussian, Inc.
  
 This software contains proprietary and confidential information,
 including trade secrets, belonging to Gaussian, Inc.
  
 This software is provided under written license and may be
 used, copied, transmitted, or stored only in accord with that
 written license.
  
 The following legend is applicable only to US Government
 contracts under FAR:
  
                    RESTRICTED RIGHTS LEGEND
  
 Use, reproduction and disclosure by the US Government is
 subject to restrictions as set forth in subparagraphs (a)
 and (c) of the Commercial Computer Software - Restricted
 Rights clause in FAR 52.227-19.
  
 Gaussian, Inc.
 340 Quinnipiac St., Bldg. 40, Wallingford CT 06492
  
  
 ---------------------------------------------------------------
 Warning -- This program may not be used in any manner that
 competes with the business of Gaussian, Inc. or will provide
 assistance to any competitor of Gaussian, Inc.  The licensee
 of this program is prohibited from giving any competitor of
 Gaussian, Inc. access to this program.  By using this program,
 the user acknowledges that Gaussian, Inc. is engaged in the
 business of creating and licensing software in the field of
 computational chemistry and represents and warrants to the
 licensee that it is not a competitor of Gaussian, Inc. and that
 it will not use this program in any manner prohibited above.
 ---------------------------------------------------------------
  

 Cite this work as:
 Gaussian 16, Revision C.01,
 M. J. Frisch, G. W. Trucks, H. B. Schlegel, G. E. Scuseria, 
 M. A. Robb, J. R. Cheeseman, G. Scalmani, V. Barone, 
 G. A. Petersson, H. Nakatsuji, X. Li, M. Caricato, A. V. Marenich, 
 J. Bloino, B. G. Janesko, R. Gomperts, B. Mennucci, H. P. Hratchian, 
 J. V. Ortiz, A. F. Izmaylov, J. L. Sonnenberg, D. Williams-Young, 
 F. Ding, F. Lipparini, F. Egidi, J. Goings, B. Peng, A. Petrone, 
 T. Henderson, D. Ranasinghe, V. G. Zakrzewski, J. Gao, N. Rega, 
 G. Zheng, W. Liang, M. Hada, M. Ehara, K. Toyota, R. Fukuda, 
 J. Hasegawa, M. Ishida, T. Nakajima, Y. Honda, O. Kitao, H. Nakai, 
 T. Vreven, K. Throssell, J. A. Montgomery, Jr., J. E. Peralta, 
 F. Ogliaro, M. J. Bearpark, J. J. Heyd, E. N. Brothers, K. N. Kudin, 
 V. N. Staroverov, T. A. Keith, R. Kobayashi, J. Normand, 
 K. Raghavachari, A. P. Rendell, J. C. Burant, S. S. Iyengar, 
 J. Tomasi, M. Cossi, J. M. Millam, M. Klene, C. Adamo, R. Cammi, 
 J. W. Ochterski, R. L. Martin, K. Morokuma, O. Farkas, 
 J. B. Foresman, and D. J. Fox, Gaussian, Inc., Wallingford CT, 2019.
 
 ******************************************
 Gaussian 16:  ES64L-G16RevC.01  3-Jul-2019
                23-Jun-2022 
 ******************************************
 %mem=8000Mb
 %NProc=4
 Will use up to    4 processors via shared memory.
 %oldchk=gs-uo2_cl2.pbe0-d3.optg.chk
 %chk=tddft-s3-uo2_cl2.pbe0-d3.optg.chk
 Copying data from "gs-uo2_cl2.pbe0-d3.optg.chk" to current chk file "tddft-s3-uo2_cl2.pbe0-d3.optg.chk"
 IOpt=  2 FromEx=T IUOpen= 4 IOptOp= 5 NList=   0 IFRang= 0 IUIn= 4 IUOut= 2.
 ----------------------------------------------------------------------
 #p PBE1PBE/GEN GFInput GFPrint 5D 7F Pseudo=Read IOP(2/9=2, 4/69=2, 6/
 7=3, 8/10=91, 8/37=22, 8/38=0) EmpiricalDispersion=GD3BJ Symm=(Loose) 
 Int=(UltraFine) Guess=(Harris) Scf=(NoVarAcc,MaxCycle=100,conver=8) td
 =(triplets,nstates=4,root=3) Opt=Tight
 ----------------------------------------------------------------------
 1/7=10,18=20,19=15,26=4,38=1/1,3;
 2/9=2,12=2,17=4,18=3,40=1/2;
 3/5=7,8=11,11=9,16=1,17=8,24=110,25=1,30=1,71=1,74=-13,75=-5,124=41/1,2,3,8;
 4/11=8,69=2/1;
 5/5=2,6=8,7=100,38=1/2;
 8/6=1,10=91,37=22,107=3,108=4/1;
 9/8=3,15=2,41=4,42=1,48=3,70=2/14;
 10/5=4,28=3/2;
 6/7=3,8=2,9=2,10=2/1;
 7/12=6,13=5,14=3/1,2,3,16;
 1/7=10,18=20,19=15,26=4/3(2);
 2/9=2/2;
 99//99;
 2/9=2/2;
 3/5=7,6=1,8=11,11=9,16=1,17=8,25=1,30=1,71=1,74=-13,75=-5,82=7,124=41/1,2,3,8;
 4/5=5,11=8,16=3,69=2/1;
 5/5=2,6=8,7=100,38=1/2;
 8/6=1,10=91,37=22,107=3,108=4/1;
 9/8=3,15=2,41=4,42=1,48=3,49=4,70=2/14;
 10/5=4,28=3/2;
 7/12=6,13=5,14=3/1,2,3,16;
 1/7=10,18=20,19=15,26=4/3(-8);
 2/9=2/2;
 6/7=3,8=2,9=2,10=2/1;
 99/9=10/99;
 Leave Link    1 at Thu Jun 23 14:31:24 2022, MaxMem=  1048576000 cpu:               0.5 elap:               0.1
 (Enter /home/pcmt/gaussian/g16.C.01/g16/l101.exe)
 ---------------------------
 [UO2Cl4]2- - PBE0+D3BJ - ES
 ---------------------------
 Symbolic Z-matrix:
 Charge =  0 Multiplicity = 1
 U                     0.        0.28722   0. 
 O                    -1.77414   0.31429   0. 
 O                     1.77414   0.31429   0. 
 Cl                    0.       -1.10604  -2.07747 
 Cl                    0.       -1.10604   2.07747 
 
 ITRead=  0  0  0  0  0
 MicOpt= -1 -1 -1 -1 -1
 NAtoms=      5 NQM=        5 NQMF=       0 NMMI=      0 NMMIF=      0
                NMic=       0 NMicF=      0.
                    Isotopes and Nuclear Properties:
 (Nuclear quadrupole moments (NQMom) in fm**2, nuclear magnetic moments (NMagM)
  in nuclear magnetons)

  Atom         1           2           3           4           5
 IAtWgt=         238          16          16          35          35
 AtmWgt= 238.0508000  15.9949146  15.9949146  34.9688527  34.9688527
 NucSpn=           0           0           0           3           3
 AtZEff=  -0.0000000  -0.0000000  -0.0000000  -0.0000000  -0.0000000
 NQMom=    0.0000000   0.0000000   0.0000000  -8.1650000  -8.1650000
 NMagM=    0.0000000   0.0000000   0.0000000   0.8218740   0.8218740
 AtZNuc=  92.0000000   8.0000000   8.0000000  17.0000000  17.0000000
 Leave Link  101 at Thu Jun 23 14:31:25 2022, MaxMem=  1048576000 cpu:               0.9 elap:               0.3
 (Enter /home/pcmt/gaussian/g16.C.01/g16/l103.exe)

 GradGradGradGradGradGradGradGradGradGradGradGradGradGradGradGradGradGrad
 Berny optimization.
 Initialization pass.
                           ----------------------------
                           !    Initial Parameters    !
                           ! (Angstroms and Degrees)  !
 --------------------------                            --------------------------
 ! Name  Definition              Value          Derivative Info.                !
 --------------------------------------------------------------------------------
 ! R1    R(1,2)                  1.7743         estimate D2E/DX2                !
 ! R2    R(1,3)                  1.7743         estimate D2E/DX2                !
 ! R3    R(1,4)                  2.5014         estimate D2E/DX2                !
 ! R4    R(1,5)                  2.5014         estimate D2E/DX2                !
 ! A1    A(2,1,4)               90.4869         estimate D2E/DX2                !
 ! A2    A(2,1,5)               90.4869         estimate D2E/DX2                !
 ! A3    A(3,1,4)               90.4869         estimate D2E/DX2                !
 ! A4    A(3,1,5)               90.4869         estimate D2E/DX2                !
 ! A5    A(4,1,5)              112.3043         estimate D2E/DX2                !
 ! A6    L(2,1,3,4,-1)         180.9738         estimate D2E/DX2                !
 ! A7    L(2,1,3,4,-2)         178.548          estimate D2E/DX2                !
 ! D1    D(2,1,5,4)             90.726          estimate D2E/DX2                !
 ! D2    D(3,1,5,4)            -90.726          estimate D2E/DX2                !
 --------------------------------------------------------------------------------
 Trust Radius=3.00D-01 FncErr=1.00D-07 GrdErr=1.00D-06 EigMax=2.50D+02 EigMin=1.00D-04
 Number of steps in this run=     23 maximum allowed number of steps=    100.
 GradGradGradGradGradGradGradGradGradGradGradGradGradGradGradGradGradGrad

 Leave Link  103 at Thu Jun 23 14:31:25 2022, MaxMem=  1048576000 cpu:               0.1 elap:               0.1
 (Enter /home/pcmt/gaussian/g16.C.01/g16/l202.exe)
                          Input orientation:                          
 ---------------------------------------------------------------------
 Center     Atomic      Atomic             Coordinates (Angstroms)
 Number     Number       Type             X           Y           Z
 ---------------------------------------------------------------------
      1         92           0        0.000000    0.287220    0.000000
      2          8           0       -1.774140    0.314290    0.000000
      3          8           0        1.774140    0.314290    0.000000
      4         17           0        0.000000   -1.106040   -2.077470
      5         17           0        0.000000   -1.106040    2.077470
 ---------------------------------------------------------------------
                    Distance matrix (angstroms):
                    1          2          3          4          5
     1  U    0.000000
     2  O    1.774347   0.000000
     3  O    1.774347   3.548280   0.000000
     4  Cl   2.501411   3.079089   3.079089   0.000000
     5  Cl   2.501411   3.079089   3.079089   4.154940   0.000000
 Stoichiometry    Cl2O2U
 Framework group  C2V[C2(U),SGV(O2),SGV'(Cl2)]
 Deg. of freedom     4
 Full point group                 C2V     NOp   4
 Largest Abelian subgroup         C2V     NOp   4
 Largest concise Abelian subgroup C2V     NOp   4
                         Standard orientation:                         
 ---------------------------------------------------------------------
 Center     Atomic      Atomic             Coordinates (Angstroms)
 Number     Number       Type             X           Y           Z
 ---------------------------------------------------------------------
      1         92           0       -0.000000    0.000000    0.330547
      2          8           0        0.000000    1.774140    0.357617
      3          8           0       -0.000000   -1.774140    0.357617
      4         17           0        2.077470   -0.000000   -1.062713
      5         17           0       -2.077470    0.000000   -1.062713
 ---------------------------------------------------------------------
 Rotational constants (GHZ):           2.4176024           1.2554966           1.2320489
 Leave Link  202 at Thu Jun 23 14:31:25 2022, MaxMem=  1048576000 cpu:               0.0 elap:               0.1
 (Enter /home/pcmt/gaussian/g16.C.01/g16/l301.exe)
 General basis read from cards:  (5D, 7F)
 Centers:       1
 S 3 1.00
     Exponent=  1.2098082000D+04 Coefficients=  1.0200000000D-04
     Exponent=  1.8337573000D+03 Coefficients=  7.7100000000D-04
     Exponent=  3.5168632000D+02 Coefficients=  2.9690000000D-03
 S 1 1.00
     Exponent=  1.0431426000D+02 Coefficients=  1.0000000000D+00
 S 3 1.00
     Exponent=  6.0905822000D+01 Coefficients=  4.9868000000D-02
     Exponent=  3.5515086000D+01 Coefficients= -2.4531300000D-01
     Exponent=  2.0891227000D+01 Coefficients=  7.2384700000D-01
 S 1 1.00
     Exponent=  1.0184647000D+01 Coefficients=  1.0000000000D+00
 S 1 1.00
     Exponent=  2.8518510000D+00 Coefficients=  1.0000000000D+00
 S 1 1.00
     Exponent=  1.5316160000D+00 Coefficients=  1.0000000000D+00
 S 1 1.00
     Exponent=  6.1620300000D-01 Coefficients=  1.0000000000D+00
 S 1 1.00
     Exponent=  2.7949400000D-01 Coefficients=  1.0000000000D+00
 S 1 1.00
     Exponent=  5.7253000000D-02 Coefficients=  1.0000000000D+00
 S 1 1.00
     Exponent=  2.3443000000D-02 Coefficients=  1.0000000000D+00
 P 5 1.00
     Exponent=  2.9068451000D+03 Coefficients=  8.8000000000D-05
     Exponent=  6.9440053000D+02 Coefficients=  7.3200000000D-04
     Exponent=  2.2463479000D+02 Coefficients=  3.4140000000D-03
     Exponent=  8.0520526000D+01 Coefficients=  1.1099000000D-02
     Exponent=  2.4080211000D+01 Coefficients=  2.5216000000D-02
 P 1 1.00
     Exponent=  1.4077580000D+01 Coefficients=  1.0000000000D+00
 P 1 1.00
     Exponent=  8.2658460000D+00 Coefficients=  1.0000000000D+00
 P 1 1.00
     Exponent=  3.4236070000D+00 Coefficients=  1.0000000000D+00
 P 1 1.00
     Exponent=  1.7084170000D+00 Coefficients=  1.0000000000D+00
 P 1 1.00
     Exponent=  6.5504600000D-01 Coefficients=  1.0000000000D+00
 P 1 1.00
     Exponent=  2.8375500000D-01 Coefficients=  1.0000000000D+00
 P 1 1.00
     Exponent=  1.0181400000D-01 Coefficients=  1.0000000000D+00
 P 1 1.00
     Exponent=  3.0535000000D-02 Coefficients=  1.0000000000D+00
 D 6 1.00
     Exponent=  4.4901953000D+02 Coefficients=  5.0000000000D-05
     Exponent=  1.5635695000D+02 Coefficients=  3.2200000000D-04
     Exponent=  6.0242439000D+01 Coefficients=  1.7770000000D-03
     Exponent=  1.7772317000D+01 Coefficients=  2.5385000000D-02
     Exponent=  1.0454304000D+01 Coefficients= -8.9378000000D-02
     Exponent=  3.5834330000D+00 Coefficients=  4.4479900000D-01
 D 1 1.00
     Exponent=  1.7637240000D+00 Coefficients=  1.0000000000D+00
 D 1 1.00
     Exponent=  7.8403000000D-01 Coefficients=  1.0000000000D+00
 D 1 1.00
     Exponent=  2.7612700000D-01 Coefficients=  1.0000000000D+00
 D 1 1.00
     Exponent=  8.6980000000D-02 Coefficients=  1.0000000000D+00
 F 5 1.00
     Exponent=  1.0528793000D+02 Coefficients=  2.2800000000D-04
     Exponent=  3.5101181000D+01 Coefficients=  2.3080000000D-03
     Exponent=  1.4564138000D+01 Coefficients=  9.2530000000D-03
     Exponent=  4.6518850000D+00 Coefficients=  1.3694900000D-01
     Exponent=  2.2559730000D+00 Coefficients=  3.3980100000D-01
 F 1 1.00
     Exponent=  1.0102740000D+00 Coefficients=  1.0000000000D+00
 F 1 1.00
     Exponent=  4.1168000000D-01 Coefficients=  1.0000000000D+00
 F 1 1.00
     Exponent=  1.4412000000D-01 Coefficients=  1.0000000000D+00
 G 4 1.00
     Exponent=  1.0528793000D+02 Coefficients=  1.3700000000D-04
     Exponent=  3.5101181000D+01 Coefficients=  1.8310000000D-03
     Exponent=  1.4564138000D+01 Coefficients=  1.9940000000D-02
     Exponent=  4.6518850000D+00 Coefficients=  1.1075800000D-01
 G 1 1.00
     Exponent=  2.2559730000D+00 Coefficients=  1.0000000000D+00
 G 1 1.00
     Exponent=  1.0102740000D+00 Coefficients=  1.0000000000D+00
 ****
 Centers:       4      5
 Def2TZVP
 ****
 Centers:       2      3
 Def2TZVP
 ****
 ======================================================================================================
                                       Pseudopotential Parameters
 ======================================================================================================
  Center     Atomic      Valence      Angular      Power
  Number     Number     Electrons     Momentum     of R      Exponent        Coefficient   SO-Coeffient
 ======================================================================================================
    1         92           32
                                      H and up 
                                                     2        1.0000000        0.00000000    0.00000000
                                      S - H
                                                     2       16.4140387      536.51662778    0.00000000
                                      P - H
                                                     2        9.0605561      169.54492465    0.00000000
                                      D - H
                                                     2        8.8318320      142.61559837    0.00000000
                                      F - H
                                                     2        7.0185163       60.39307602    0.00000000
                                      G - H
                                                     2       12.8040884      -60.12998958    0.00000000
    2          8
                                   No pseudopotential on this center.
    3          8
                                   No pseudopotential on this center.
    4         17
                                   No pseudopotential on this center.
    5         17
                                   No pseudopotential on this center.
 ======================================================================================================
 Ernie: Thresh=  0.10000D-02 Tol=  0.10000D-05 Strict=F.
 AO basis set in the form of general basis input (Overlap normalization):
      1 0
 S   3 1.00       0.000000000000
      0.1209808200D+05  0.2884168448D-01
      0.1833757300D+04  0.2180092033D+00
      0.3516863200D+03  0.8395192276D+00
 S   3 1.00       0.000000000000
      0.6090582200D+02  0.9338504807D-01
      0.3551508600D+02 -0.4593840999D+00
      0.2089122700D+02  0.1355508280D+01
 S   1 1.00       0.000000000000
      0.1043142600D+03  0.1000000000D+01
 S   1 1.00       0.000000000000
      0.1018464700D+02  0.1000000000D+01
 S   1 1.00       0.000000000000
      0.2851851000D+01  0.1000000000D+01
 S   1 1.00       0.000000000000
      0.1531616000D+01  0.1000000000D+01
 S   1 1.00       0.000000000000
      0.6162030000D+00  0.1000000000D+01
 S   1 1.00       0.000000000000
      0.2794940000D+00  0.1000000000D+01
 S   1 1.00       0.000000000000
      0.5725300000D-01  0.1000000000D+01
 S   1 1.00       0.000000000000
      0.2344300000D-01  0.1000000000D+01
 P   5 1.00       0.000000000000
      0.2906845100D+04  0.2490724940D-02
      0.6944005300D+03  0.2071830291D-01
      0.2246347900D+03  0.9662880620D-01
      0.8052052600D+02  0.3141426831D+00
      0.2408021100D+02  0.7137059101D+00
 P   1 1.00       0.000000000000
      0.1407758000D+02  0.1000000000D+01
 P   1 1.00       0.000000000000
      0.8265846000D+01  0.1000000000D+01
 P   1 1.00       0.000000000000
      0.3423607000D+01  0.1000000000D+01
 P   1 1.00       0.000000000000
      0.1708417000D+01  0.1000000000D+01
 P   1 1.00       0.000000000000
      0.6550460000D+00  0.1000000000D+01
 P   1 1.00       0.000000000000
      0.2837550000D+00  0.1000000000D+01
 P   1 1.00       0.000000000000
      0.1018140000D+00  0.1000000000D+01
 P   1 1.00       0.000000000000
      0.3053500000D-01  0.1000000000D+01
 D   6 1.00       0.000000000000
      0.4490195300D+03  0.1244413406D-03
      0.1563569500D+03  0.8014022332D-03
      0.6024243900D+02  0.4422645243D-02
      0.1777231700D+02  0.6317886860D-01
      0.1045430400D+02 -0.2224463627D+00
      0.3583433000D+01  0.1107027677D+01
 D   1 1.00       0.000000000000
      0.1763724000D+01  0.1000000000D+01
 D   1 1.00       0.000000000000
      0.7840300000D+00  0.1000000000D+01
 D   1 1.00       0.000000000000
      0.2761270000D+00  0.1000000000D+01
 D   1 1.00       0.000000000000
      0.8698000000D-01  0.1000000000D+01
 F   5 1.00       0.000000000000
      0.1052879300D+03  0.5015876177D-03
      0.3510118100D+02  0.5077474656D-02
      0.1456413800D+02  0.2035609748D-01
      0.4651885000D+01  0.3012803625D+00
      0.2255973000D+01  0.7475437460D+00
 F   1 1.00       0.000000000000
      0.1010274000D+01  0.1000000000D+01
 F   1 1.00       0.000000000000
      0.4116800000D+00  0.1000000000D+01
 F   1 1.00       0.000000000000
      0.1441200000D+00  0.1000000000D+01
 G   4 1.00       0.000000000000
      0.1052879300D+03  0.1132460043D-02
      0.3510118100D+02  0.1513528715D-01
      0.1456413800D+02  0.1648266662D+00
      0.4651885000D+01  0.9155402153D+00
 G   1 1.00       0.000000000000
      0.2255973000D+01  0.1000000000D+01
 G   1 1.00       0.000000000000
      0.1010274000D+01  0.1000000000D+01
 ****
      2 0
 S   6 1.00       0.000000000000
      0.2703238263D+05  0.5722733521D-03
      0.4052387139D+04  0.4435323349D-02
      0.9223272271D+03  0.2302010771D-01
      0.2612407099D+03  0.9282249067D-01
      0.8535464135D+02  0.2937850001D+00
      0.3103503524D+02  0.6740160450D+00
 S   2 1.00       0.000000000000
      0.1226086073D+02  0.6383993703D+00
      0.4998707601D+01  0.3953458713D+00
 S   1 1.00       0.000000000000
      0.1170310816D+01  0.1000000000D+01
 S   1 1.00       0.000000000000
      0.4647474099D+00  0.1000000000D+01
 S   1 1.00       0.000000000000
      0.1850453636D+00  0.1000000000D+01
 P   4 1.00       0.000000000000
      0.6327495480D+02  0.1201833222D-01
      0.1462704938D+02  0.8300542179D-01
      0.4450122346D+01  0.3199174393D+00
      0.1527579965D+01  0.7071554292D+00
 P   1 1.00       0.000000000000
      0.5293511794D+00  0.1000000000D+01
 P   1 1.00       0.000000000000
      0.1747842127D+00  0.1000000000D+01
 D   1 1.00       0.000000000000
      0.2314000000D+01  0.1000000000D+01
 D   1 1.00       0.000000000000
      0.6450000000D+00  0.1000000000D+01
 F   1 1.00       0.000000000000
      0.1428000000D+01  0.1000000000D+01
 ****
      3 0
 S   6 1.00       0.000000000000
      0.2703238263D+05  0.5722733521D-03
      0.4052387139D+04  0.4435323349D-02
      0.9223272271D+03  0.2302010771D-01
      0.2612407099D+03  0.9282249067D-01
      0.8535464135D+02  0.2937850001D+00
      0.3103503524D+02  0.6740160450D+00
 S   2 1.00       0.000000000000
      0.1226086073D+02  0.6383993703D+00
      0.4998707601D+01  0.3953458713D+00
 S   1 1.00       0.000000000000
      0.1170310816D+01  0.1000000000D+01
 S   1 1.00       0.000000000000
      0.4647474099D+00  0.1000000000D+01
 S   1 1.00       0.000000000000
      0.1850453636D+00  0.1000000000D+01
 P   4 1.00       0.000000000000
      0.6327495480D+02  0.1201833222D-01
      0.1462704938D+02  0.8300542179D-01
      0.4450122346D+01  0.3199174393D+00
      0.1527579965D+01  0.7071554292D+00
 P   1 1.00       0.000000000000
      0.5293511794D+00  0.1000000000D+01
 P   1 1.00       0.000000000000
      0.1747842127D+00  0.1000000000D+01
 D   1 1.00       0.000000000000
      0.2314000000D+01  0.1000000000D+01
 D   1 1.00       0.000000000000
      0.6450000000D+00  0.1000000000D+01
 F   1 1.00       0.000000000000
      0.1428000000D+01  0.1000000000D+01
 ****
      4 0
 S   7 1.00       0.000000000000
      0.6950799094D+05  0.5145738965D-03
      0.1042615688D+05  0.3978134481D-02
      0.2373233406D+04  0.2045617867D-01
      0.6715642007D+03  0.8014810289D-01
      0.2184199979D+03  0.2345477032D+00
      0.7757224971D+02  0.4454336858D+00
      0.2888881528D+02  0.3546684250D+00
 S   3 1.00       0.000000000000
      0.1271052718D+03  0.1129368805D+00
      0.3933958296D+02  0.4837351421D+00
      0.7674067999D+01 -0.1229229739D+01
 S   2 1.00       0.000000000000
      0.3874562763D+01  0.6729682164D+00
      0.1838583257D+01  0.3495605141D+00
 S   1 1.00       0.000000000000
      0.5022905754D+00  0.1000000000D+01
 S   1 1.00       0.000000000000
      0.1796272342D+00  0.1000000000D+01
 P   5 1.00       0.000000000000
      0.6665042328D+03  0.3350250820D-02
      0.1576424169D+03  0.2676397041D-01
      0.5026252098D+02  0.1236268236D+00
      0.1853607811D+02  0.3584578792D+00
      0.7294053278D+01  0.6167729635D+00
 P   1 1.00       0.000000000000
      0.2943324899D+01  0.1000000000D+01
 P   1 1.00       0.000000000000
      0.1040497082D+01  0.1000000000D+01
 P   1 1.00       0.000000000000
      0.3845641508D+00  0.1000000000D+01
 P   1 1.00       0.000000000000
      0.1306964273D+00  0.1000000000D+01
 D   2 1.00       0.000000000000
      0.4610000000D+01  0.1826583505D+00
      0.1011000000D+01  0.9132917523D+00
 D   1 1.00       0.000000000000
      0.3390000000D+00  0.1000000000D+01
 F   1 1.00       0.000000000000
      0.7060000000D+00  0.1000000000D+01
 ****
      5 0
 S   7 1.00       0.000000000000
      0.6950799094D+05  0.5145738965D-03
      0.1042615688D+05  0.3978134481D-02
      0.2373233406D+04  0.2045617867D-01
      0.6715642007D+03  0.8014810289D-01
      0.2184199979D+03  0.2345477032D+00
      0.7757224971D+02  0.4454336858D+00
      0.2888881528D+02  0.3546684250D+00
 S   3 1.00       0.000000000000
      0.1271052718D+03  0.1129368805D+00
      0.3933958296D+02  0.4837351421D+00
      0.7674067999D+01 -0.1229229739D+01
 S   2 1.00       0.000000000000
      0.3874562763D+01  0.6729682164D+00
      0.1838583257D+01  0.3495605141D+00
 S   1 1.00       0.000000000000
      0.5022905754D+00  0.1000000000D+01
 S   1 1.00       0.000000000000
      0.1796272342D+00  0.1000000000D+01
 P   5 1.00       0.000000000000
      0.6665042328D+03  0.3350250820D-02
      0.1576424169D+03  0.2676397041D-01
      0.5026252098D+02  0.1236268236D+00
      0.1853607811D+02  0.3584578792D+00
      0.7294053278D+01  0.6167729635D+00
 P   1 1.00       0.000000000000
      0.2943324899D+01  0.1000000000D+01
 P   1 1.00       0.000000000000
      0.1040497082D+01  0.1000000000D+01
 P   1 1.00       0.000000000000
      0.3845641508D+00  0.1000000000D+01
 P   1 1.00       0.000000000000
      0.1306964273D+00  0.1000000000D+01
 D   2 1.00       0.000000000000
      0.4610000000D+01  0.1826583505D+00
      0.1011000000D+01  0.9132917523D+00
 D   1 1.00       0.000000000000
      0.3390000000D+00  0.1000000000D+01
 F   1 1.00       0.000000000000
      0.7060000000D+00  0.1000000000D+01
 ****

 AO basis set (Overlap normalization):
 Atom U1       Shell     1 S   3     bf    1 -     1         -0.000000000000         -0.000000000000          0.624643913461
      0.1209808200D+05  0.2884168448D-01
      0.1833757300D+04  0.2180092033D+00
      0.3516863200D+03  0.8395192276D+00
 Atom U1       Shell     2 S   3     bf    2 -     2         -0.000000000000         -0.000000000000          0.624643913461
      0.6090582200D+02  0.9338504807D-01
      0.3551508600D+02 -0.4593840999D+00
      0.2089122700D+02  0.1355508280D+01
 Atom U1       Shell     3 S   1     bf    3 -     3         -0.000000000000         -0.000000000000          0.624643913461
      0.1043142600D+03  0.1000000000D+01
 Atom U1       Shell     4 S   1     bf    4 -     4         -0.000000000000         -0.000000000000          0.624643913461
      0.1018464700D+02  0.1000000000D+01
 Atom U1       Shell     5 S   1     bf    5 -     5         -0.000000000000         -0.000000000000          0.624643913461
      0.2851851000D+01  0.1000000000D+01
 Atom U1       Shell     6 S   1     bf    6 -     6         -0.000000000000         -0.000000000000          0.624643913461
      0.1531616000D+01  0.1000000000D+01
 Atom U1       Shell     7 S   1     bf    7 -     7         -0.000000000000         -0.000000000000          0.624643913461
      0.6162030000D+00  0.1000000000D+01
 Atom U1       Shell     8 S   1     bf    8 -     8         -0.000000000000         -0.000000000000          0.624643913461
      0.2794940000D+00  0.1000000000D+01
 Atom U1       Shell     9 S   1     bf    9 -     9         -0.000000000000         -0.000000000000          0.624643913461
      0.5725300000D-01  0.1000000000D+01
 Atom U1       Shell    10 S   1     bf   10 -    10         -0.000000000000         -0.000000000000          0.624643913461
      0.2344300000D-01  0.1000000000D+01
 Atom U1       Shell    11 P   5     bf   11 -    13         -0.000000000000         -0.000000000000          0.624643913461
      0.2906845100D+04  0.2490724940D-02
      0.6944005300D+03  0.2071830291D-01
      0.2246347900D+03  0.9662880620D-01
      0.8052052600D+02  0.3141426831D+00
      0.2408021100D+02  0.7137059101D+00
 Atom U1       Shell    12 P   1     bf   14 -    16         -0.000000000000         -0.000000000000          0.624643913461
      0.1407758000D+02  0.1000000000D+01
 Atom U1       Shell    13 P   1     bf   17 -    19         -0.000000000000         -0.000000000000          0.624643913461
      0.8265846000D+01  0.1000000000D+01
 Atom U1       Shell    14 P   1     bf   20 -    22         -0.000000000000         -0.000000000000          0.624643913461
      0.3423607000D+01  0.1000000000D+01
 Atom U1       Shell    15 P   1     bf   23 -    25         -0.000000000000         -0.000000000000          0.624643913461
      0.1708417000D+01  0.1000000000D+01
 Atom U1       Shell    16 P   1     bf   26 -    28         -0.000000000000         -0.000000000000          0.624643913461
      0.6550460000D+00  0.1000000000D+01
 Atom U1       Shell    17 P   1     bf   29 -    31         -0.000000000000         -0.000000000000          0.624643913461
      0.2837550000D+00  0.1000000000D+01
 Atom U1       Shell    18 P   1     bf   32 -    34         -0.000000000000         -0.000000000000          0.624643913461
      0.1018140000D+00  0.1000000000D+01
 Atom U1       Shell    19 P   1     bf   35 -    37         -0.000000000000         -0.000000000000          0.624643913461
      0.3053500000D-01  0.1000000000D+01
 Atom U1       Shell    20 D   6     bf   38 -    42         -0.000000000000         -0.000000000000          0.624643913461
      0.4490195300D+03  0.1244413406D-03
      0.1563569500D+03  0.8014022332D-03
      0.6024243900D+02  0.4422645243D-02
      0.1777231700D+02  0.6317886860D-01
      0.1045430400D+02 -0.2224463627D+00
      0.3583433000D+01  0.1107027677D+01
 Atom U1       Shell    21 D   1     bf   43 -    47         -0.000000000000         -0.000000000000          0.624643913461
      0.1763724000D+01  0.1000000000D+01
 Atom U1       Shell    22 D   1     bf   48 -    52         -0.000000000000         -0.000000000000          0.624643913461
      0.7840300000D+00  0.1000000000D+01
 Atom U1       Shell    23 D   1     bf   53 -    57         -0.000000000000         -0.000000000000          0.624643913461
      0.2761270000D+00  0.1000000000D+01
 Atom U1       Shell    24 D   1     bf   58 -    62         -0.000000000000         -0.000000000000          0.624643913461
      0.8698000000D-01  0.1000000000D+01
 Atom U1       Shell    25 F   5     bf   63 -    69         -0.000000000000         -0.000000000000          0.624643913461
      0.1052879300D+03  0.5015876177D-03
      0.3510118100D+02  0.5077474656D-02
      0.1456413800D+02  0.2035609748D-01
      0.4651885000D+01  0.3012803625D+00
      0.2255973000D+01  0.7475437460D+00
 Atom U1       Shell    26 F   1     bf   70 -    76         -0.000000000000         -0.000000000000          0.624643913461
      0.1010274000D+01  0.1000000000D+01
 Atom U1       Shell    27 F   1     bf   77 -    83         -0.000000000000         -0.000000000000          0.624643913461
      0.4116800000D+00  0.1000000000D+01
 Atom U1       Shell    28 F   1     bf   84 -    90         -0.000000000000         -0.000000000000          0.624643913461
      0.1441200000D+00  0.1000000000D+01
 Atom U1       Shell    29 G   4     bf   91 -    99         -0.000000000000         -0.000000000000          0.624643913461
      0.1052879300D+03  0.1132460043D-02
      0.3510118100D+02  0.1513528715D-01
      0.1456413800D+02  0.1648266662D+00
      0.4651885000D+01  0.9155402153D+00
 Atom U1       Shell    30 G   1     bf  100 -   108         -0.000000000000         -0.000000000000          0.624643913461
      0.2255973000D+01  0.1000000000D+01
 Atom U1       Shell    31 G   1     bf  109 -   117         -0.000000000000         -0.000000000000          0.624643913461
      0.1010274000D+01  0.1000000000D+01
 Atom O2       Shell    32 S   6     bf  118 -   118          0.000000000000          3.352638706636          0.675798799653
      0.2703238263D+05  0.5722733521D-03
      0.4052387139D+04  0.4435323349D-02
      0.9223272271D+03  0.2302010771D-01
      0.2612407099D+03  0.9282249067D-01
      0.8535464135D+02  0.2937850001D+00
      0.3103503524D+02  0.6740160450D+00
 Atom O2       Shell    33 S   2     bf  119 -   119          0.000000000000          3.352638706636          0.675798799653
      0.1226086073D+02  0.6383993703D+00
      0.4998707601D+01  0.3953458713D+00
 Atom O2       Shell    34 S   1     bf  120 -   120          0.000000000000          3.352638706636          0.675798799653
      0.1170310816D+01  0.1000000000D+01
 Atom O2       Shell    35 S   1     bf  121 -   121          0.000000000000          3.352638706636          0.675798799653
      0.4647474099D+00  0.1000000000D+01
 Atom O2       Shell    36 S   1     bf  122 -   122          0.000000000000          3.352638706636          0.675798799653
      0.1850453636D+00  0.1000000000D+01
 Atom O2       Shell    37 P   4     bf  123 -   125          0.000000000000          3.352638706636          0.675798799653
      0.6327495480D+02  0.1201833222D-01
      0.1462704938D+02  0.8300542179D-01
      0.4450122346D+01  0.3199174393D+00
      0.1527579965D+01  0.7071554292D+00
 Atom O2       Shell    38 P   1     bf  126 -   128          0.000000000000          3.352638706636          0.675798799653
      0.5293511794D+00  0.1000000000D+01
 Atom O2       Shell    39 P   1     bf  129 -   131          0.000000000000          3.352638706636          0.675798799653
      0.1747842127D+00  0.1000000000D+01
 Atom O2       Shell    40 D   1     bf  132 -   136          0.000000000000          3.352638706636          0.675798799653
      0.2314000000D+01  0.1000000000D+01
 Atom O2       Shell    41 D   1     bf  137 -   141          0.000000000000          3.352638706636          0.675798799653
      0.6450000000D+00  0.1000000000D+01
 Atom O2       Shell    42 F   1     bf  142 -   148          0.000000000000          3.352638706636          0.675798799653
      0.1428000000D+01  0.1000000000D+01
 Atom O3       Shell    43 S   6     bf  149 -   149         -0.000000000000         -3.352638706636          0.675798799653
      0.2703238263D+05  0.5722733521D-03
      0.4052387139D+04  0.4435323349D-02
      0.9223272271D+03  0.2302010771D-01
      0.2612407099D+03  0.9282249067D-01
      0.8535464135D+02  0.2937850001D+00
      0.3103503524D+02  0.6740160450D+00
 Atom O3       Shell    44 S   2     bf  150 -   150         -0.000000000000         -3.352638706636          0.675798799653
      0.1226086073D+02  0.6383993703D+00
      0.4998707601D+01  0.3953458713D+00
 Atom O3       Shell    45 S   1     bf  151 -   151         -0.000000000000         -3.352638706636          0.675798799653
      0.1170310816D+01  0.1000000000D+01
 Atom O3       Shell    46 S   1     bf  152 -   152         -0.000000000000         -3.352638706636          0.675798799653
      0.4647474099D+00  0.1000000000D+01
 Atom O3       Shell    47 S   1     bf  153 -   153         -0.000000000000         -3.352638706636          0.675798799653
      0.1850453636D+00  0.1000000000D+01
 Atom O3       Shell    48 P   4     bf  154 -   156         -0.000000000000         -3.352638706636          0.675798799653
      0.6327495480D+02  0.1201833222D-01
      0.1462704938D+02  0.8300542179D-01
      0.4450122346D+01  0.3199174393D+00
      0.1527579965D+01  0.7071554292D+00
 Atom O3       Shell    49 P   1     bf  157 -   159         -0.000000000000         -3.352638706636          0.675798799653
      0.5293511794D+00  0.1000000000D+01
 Atom O3       Shell    50 P   1     bf  160 -   162         -0.000000000000         -3.352638706636          0.675798799653
      0.1747842127D+00  0.1000000000D+01
 Atom O3       Shell    51 D   1     bf  163 -   167         -0.000000000000         -3.352638706636          0.675798799653
      0.2314000000D+01  0.1000000000D+01
 Atom O3       Shell    52 D   1     bf  168 -   172         -0.000000000000         -3.352638706636          0.675798799653
      0.6450000000D+00  0.1000000000D+01
 Atom O3       Shell    53 F   1     bf  173 -   179         -0.000000000000         -3.352638706636          0.675798799653
      0.1428000000D+01  0.1000000000D+01
 Atom Cl4      Shell    54 S   7     bf  180 -   180          3.925849332000         -0.000000000000         -2.008235906850
      0.6950799094D+05  0.5145738965D-03
      0.1042615688D+05  0.3978134481D-02
      0.2373233406D+04  0.2045617867D-01
      0.6715642007D+03  0.8014810289D-01
      0.2184199979D+03  0.2345477032D+00
      0.7757224971D+02  0.4454336858D+00
      0.2888881528D+02  0.3546684250D+00
 Atom Cl4      Shell    55 S   3     bf  181 -   181          3.925849332000         -0.000000000000         -2.008235906850
      0.1271052718D+03  0.1129368805D+00
      0.3933958296D+02  0.4837351421D+00
      0.7674067999D+01 -0.1229229739D+01
 Atom Cl4      Shell    56 S   2     bf  182 -   182          3.925849332000         -0.000000000000         -2.008235906850
      0.3874562763D+01  0.6729682164D+00
      0.1838583257D+01  0.3495605141D+00
 Atom Cl4      Shell    57 S   1     bf  183 -   183          3.925849332000         -0.000000000000         -2.008235906850
      0.5022905754D+00  0.1000000000D+01
 Atom Cl4      Shell    58 S   1     bf  184 -   184          3.925849332000         -0.000000000000         -2.008235906850
      0.1796272342D+00  0.1000000000D+01
 Atom Cl4      Shell    59 P   5     bf  185 -   187          3.925849332000         -0.000000000000         -2.008235906850
      0.6665042328D+03  0.3350250820D-02
      0.1576424169D+03  0.2676397041D-01
      0.5026252098D+02  0.1236268236D+00
      0.1853607811D+02  0.3584578792D+00
      0.7294053278D+01  0.6167729635D+00
 Atom Cl4      Shell    60 P   1     bf  188 -   190          3.925849332000         -0.000000000000         -2.008235906850
      0.2943324899D+01  0.1000000000D+01
 Atom Cl4      Shell    61 P   1     bf  191 -   193          3.925849332000         -0.000000000000         -2.008235906850
      0.1040497082D+01  0.1000000000D+01
 Atom Cl4      Shell    62 P   1     bf  194 -   196          3.925849332000         -0.000000000000         -2.008235906850
      0.3845641508D+00  0.1000000000D+01
 Atom Cl4      Shell    63 P   1     bf  197 -   199          3.925849332000         -0.000000000000         -2.008235906850
      0.1306964273D+00  0.1000000000D+01
 Atom Cl4      Shell    64 D   2     bf  200 -   204          3.925849332000         -0.000000000000         -2.008235906850
      0.4610000000D+01  0.1826583505D+00
      0.1011000000D+01  0.9132917523D+00
 Atom Cl4      Shell    65 D   1     bf  205 -   209          3.925849332000         -0.000000000000         -2.008235906850
      0.3390000000D+00  0.1000000000D+01
 Atom Cl4      Shell    66 F   1     bf  210 -   216          3.925849332000         -0.000000000000         -2.008235906850
      0.7060000000D+00  0.1000000000D+01
 Atom Cl5      Shell    67 S   7     bf  217 -   217         -3.925849332000          0.000000000000         -2.008235906850
      0.6950799094D+05  0.5145738965D-03
      0.1042615688D+05  0.3978134481D-02
      0.2373233406D+04  0.2045617867D-01
      0.6715642007D+03  0.8014810289D-01
      0.2184199979D+03  0.2345477032D+00
      0.7757224971D+02  0.4454336858D+00
      0.2888881528D+02  0.3546684250D+00
 Atom Cl5      Shell    68 S   3     bf  218 -   218         -3.925849332000          0.000000000000         -2.008235906850
      0.1271052718D+03  0.1129368805D+00
      0.3933958296D+02  0.4837351421D+00
      0.7674067999D+01 -0.1229229739D+01
 Atom Cl5      Shell    69 S   2     bf  219 -   219         -3.925849332000          0.000000000000         -2.008235906850
      0.3874562763D+01  0.6729682164D+00
      0.1838583257D+01  0.3495605141D+00
 Atom Cl5      Shell    70 S   1     bf  220 -   220         -3.925849332000          0.000000000000         -2.008235906850
      0.5022905754D+00  0.1000000000D+01
 Atom Cl5      Shell    71 S   1     bf  221 -   221         -3.925849332000          0.000000000000         -2.008235906850
      0.1796272342D+00  0.1000000000D+01
 Atom Cl5      Shell    72 P   5     bf  222 -   224         -3.925849332000          0.000000000000         -2.008235906850
      0.6665042328D+03  0.3350250820D-02
      0.1576424169D+03  0.2676397041D-01
      0.5026252098D+02  0.1236268236D+00
      0.1853607811D+02  0.3584578792D+00
      0.7294053278D+01  0.6167729635D+00
 Atom Cl5      Shell    73 P   1     bf  225 -   227         -3.925849332000          0.000000000000         -2.008235906850
      0.2943324899D+01  0.1000000000D+01
 Atom Cl5      Shell    74 P   1     bf  228 -   230         -3.925849332000          0.000000000000         -2.008235906850
      0.1040497082D+01  0.1000000000D+01
 Atom Cl5      Shell    75 P   1     bf  231 -   233         -3.925849332000          0.000000000000         -2.008235906850
      0.3845641508D+00  0.1000000000D+01
 Atom Cl5      Shell    76 P   1     bf  234 -   236         -3.925849332000          0.000000000000         -2.008235906850
      0.1306964273D+00  0.1000000000D+01
 Atom Cl5      Shell    77 D   2     bf  237 -   241         -3.925849332000          0.000000000000         -2.008235906850
      0.4610000000D+01  0.1826583505D+00
      0.1011000000D+01  0.9132917523D+00
 Atom Cl5      Shell    78 D   1     bf  242 -   246         -3.925849332000          0.000000000000         -2.008235906850
      0.3390000000D+00  0.1000000000D+01
 Atom Cl5      Shell    79 F   1     bf  247 -   253         -3.925849332000          0.000000000000         -2.008235906850
      0.7060000000D+00  0.1000000000D+01
 Effective core potential in the form of general ECP input:
      1 0
 U1-ECP   5 60
 H component
  1
  2        1.0000000        0.00000000    0.00000000
 S-H projection
  1
  2       16.4140387      536.51662778    0.00000000
 P-H projection
  1
  2        9.0605561      169.54492465    0.00000000
 D-H projection
  1
  2        8.8318320      142.61559837    0.00000000
 F-H projection
  1
  2        7.0185163       60.39307602    0.00000000
 G-H projection
  1
  2       12.8040884      -60.12998958    0.00000000
 
 There are   118 symmetry adapted cartesian basis functions of A1  symmetry.
 There are    42 symmetry adapted cartesian basis functions of A2  symmetry.
 There are    75 symmetry adapted cartesian basis functions of B1  symmetry.
 There are    73 symmetry adapted cartesian basis functions of B2  symmetry.
 There are    92 symmetry adapted basis functions of A1  symmetry.
 There are    37 symmetry adapted basis functions of A2  symmetry.
 There are    63 symmetry adapted basis functions of B1  symmetry.
 There are    61 symmetry adapted basis functions of B2  symmetry.
   253 basis functions,   523 primitive gaussians,   308 cartesian basis functions
    41 alpha electrons       41 beta electrons
       nuclear repulsion energy       522.7105575146 Hartrees.
 IExCor= 1009 DFT=T Ex+Corr=PBE1PBE ExCW=0 ScaHFX=  0.250000
 ScaDFX=  0.750000  0.750000  1.000000  1.000000 ScalE2=  1.000000  1.000000
 IRadAn=      5 IRanWt=     -1 IRanGd=            0 ICorTp=0 IEmpDi=141
 NAtoms=    5 NActive=    5 NUniq=    3 SFac= 2.78D+00 NAtFMM=   60 NAOKFM=F Big=F
 Integral buffers will be    131072 words long.
 Regular integral format.
 Two-electron integral symmetry is turned on.
 R6Disp:  Grimme-D3(BJ) Dispersion energy=       -0.0056251257 Hartrees.
 Nuclear repulsion after empirical dispersion term =      522.7049323889 Hartrees.
 Leave Link  301 at Thu Jun 23 14:31:25 2022, MaxMem=  1048576000 cpu:               0.4 elap:               0.2
 (Enter /home/pcmt/gaussian/g16.C.01/g16/l302.exe)
 NPDir=0 NMtPBC=     1 NCelOv=     1 NCel=       1 NClECP=     1 NCelD=      1
         NCelK=      1 NCelE2=     1 NClLst=     1 CellRange=     0.0.
 One-electron integrals computed using PRISM.
 One-electron integral symmetry used in STVInt
   4 Symmetry operations used in ECPInt.
 ECPInt:  NShTT=    3160 NPrTT=   10748 LenC2=    3033 LenP2D=    7895.
 LDataN:  DoStor=T MaxTD1= 9 Len=  602
 NBasis=   253 RedAO= T EigKep=  6.37D-04  NBF=    92    37    63    61
 NBsUse=   253 1.00D-06 EigRej= -1.00D+00 NBFU=    92    37    63    61
 Precomputing XC quadrature grid using
 IXCGrd= 4 IRadAn=           5 IRanWt=          -1 IRanGd=           0 AccXCQ= 0.00D+00.
 Defaulting to unpruned grid for atomic number  92.
 Generated NRdTot=       0 NPtTot=           0 NUsed=           0 NTot=          32
 NSgBfM=   302   302   302   302   302 MxSgAt=     5 MxSgA2=     5.
 Leave Link  302 at Thu Jun 23 14:31:26 2022, MaxMem=  1048576000 cpu:               3.7 elap:               1.2
 (Enter /home/pcmt/gaussian/g16.C.01/g16/l303.exe)
 DipDrv:  MaxL=1.
 Leave Link  303 at Thu Jun 23 14:31:26 2022, MaxMem=  1048576000 cpu:               0.2 elap:               0.1
 (Enter /home/pcmt/gaussian/g16.C.01/g16/l308.exe)
 Leave Link  308 at Thu Jun 23 14:31:27 2022, MaxMem=  1048576000 cpu:               0.3 elap:               0.1
 (Enter /home/pcmt/gaussian/g16.C.01/g16/l401.exe)
 ExpMin= 2.34D-02 ExpMax= 6.95D+04 ExpMxC= 1.21D+04 IAcc=3 IRadAn=         5 AccDes= 0.00D+00
 Harris functional with IExCor= 1009 and IRadAn=       5 diagonalized for initial guess.
 HarFok:  IExCor= 1009 AccDes= 0.00D+00 IRadAn=         5 IDoV= 1 UseB2=F ITyADJ=14
 ICtDFT=  3500011 ScaDFX=  1.000000  1.000000  1.000000  1.000000
 Defaulting to unpruned grid for atomic number  92.
 FoFCou: FMM=F IPFlag=           0 FMFlag=      100000 FMFlg1=           0
         NFxFlg=           0 DoJE=T BraDBF=F KetDBF=T FulRan=T
         wScrn=  0.000000 ICntrl=       500 IOpCl=  0 I1Cent=   200000004 NGrid=           0
         NMat0=    1 NMatS0=      1 NMatT0=    0 NMatD0=    1 NMtDS0=    0 NMtDT0=    0
 Petite list used in FoFCou.
 Harris En= -1549.02620370638    
 JPrj=0 DoOrth=F DoCkMO=F.
 Initial guess orbital symmetries:
       Occupied  (B1) (A1) (B2) (A1) (A1) (B1) (A1) (B2) (A1) (B1)
                 (A1) (B1) (B2) (A2) (A1) (B1) (A1) (B2) (A2) (B1)
                 (A1) (A1) (B2) (A1) (B1) (A1) (A1) (B1) (B2) (A2)
                 (B2) (A1) (B1) (A1) (B2) (A1) (B1) (A1) (A2) (B1)
                 (B2)
       Virtual   (A1) (B1) (A1) (B2) (A2) (B1) (A1) (A1) (B2) (B1)
                 (A1) (B1) (B2) (A2) (A1) (B2) (A1) (B2) (A1) (B1)
                 (B2) (A2) (B1) (A1) (A1) (B2) (B1) (A2) (B1) (A1)
                 (B2) (A1) (A2) (B1) (A1) (B2) (B1) (A2) (A1) (B1)
                 (B2) (A1) (A1) (A2) (B2) (B1) (A1) (B2) (A1) (B1)
                 (A1) (A2) (B1) (B2) (A1) (B2) (A1) (B1) (A1) (A1)
                 (B1) (A1) (B1) (B2) (A1) (A2) (B1) (B2) (B1) (B2)
                 (A2) (A1) (A2) (B2) (A2) (A1) (B1) (B2) (A1) (B2)
                 (A1) (A2) (B1) (A1) (B1) (B2) (A1) (B2) (A2) (B1)
                 (A1) (B2) (B1) (A2) (A1) (B1) (A2) (A1) (B2) (B1)
                 (B2) (B1) (A1) (A2) (B1) (A1) (A1) (B2) (B2) (B1)
                 (A1) (A2) (B2) (A2) (B1) (A1) (A2) (A1) (B1) (A1)
                 (B2) (B1) (A1) (A1) (B2) (A2) (B2) (A1) (B1) (A1)
                 (B2) (B2) (B2) (A2) (B1) (A1) (A1) (B1) (A2) (B2)
                 (B1) (A1) (B2) (A2) (A1) (B1) (B2) (A2) (A1) (A1)
                 (B1) (B2) (A1) (B1) (B2) (A2) (B2) (A2) (A1) (A2)
                 (A1) (B2) (B1) (B1) (A1) (A1) (B1) (A1) (B2) (B1)
                 (A1) (B2) (A2) (A1) (B2) (B2) (A1) (A2) (B1) (A1)
                 (B1) (A2) (A1) (B2) (B1) (A1) (A2) (B2) (B1) (A1)
                 (A1) (B1) (A2) (B2) (A1) (A1) (B1) (B2) (A1) (B1)
                 (A1) (A1) (B2) (A1) (B1) (B2) (A1) (A1) (B1) (B2)
                 (A1) (A1)
 The electronic state of the initial guess is 1-A1.
 Leave Link  401 at Thu Jun 23 14:31:27 2022, MaxMem=  1048576000 cpu:               3.1 elap:               0.8
 (Enter /home/pcmt/gaussian/g16.C.01/g16/l502.exe)
 Keep R1 ints in memory in symmetry-blocked form, NReq=646035938.
 FoFCou: FMM=F IPFlag=           0 FMFlag=           0 FMFlg1=           0
         NFxFlg=           0 DoJE=F BraDBF=F KetDBF=F FulRan=T
         wScrn=  0.000000 ICntrl=       600 IOpCl=  0 I1Cent=           0 NGrid=           0
         NMat0=    1 NMatS0=  32131 NMatT0=    0 NMatD0=    1 NMtDS0=    0 NMtDT0=    0
 Petite list used in FoFCou.
 Closed shell SCF:
 Using DIIS extrapolation, IDIIS=  1040.
 NGot=  1048576000 LenX=   918564064 LenY=   918468759
 Requested convergence on RMS density matrix=1.00D-08 within 100 cycles.
 Requested convergence on MAX density matrix=1.00D-06.
 Requested convergence on             energy=1.00D-06.
 No special actions if energy rises.

 Cycle   1  Pass 1  IDiag  1:
 Defaulting to unpruned grid for atomic number  92.
 Defaulting to unpruned grid for atomic number  92.
 Defaulting to unpruned grid for atomic number  92.
 Defaulting to unpruned grid for atomic number  92.
 E= -1546.50053739010    
 DIIS: error= 8.53D-02 at cycle   1 NSaved=   1.
 NSaved= 1 IEnMin= 1 EnMin= -1546.50053739010     IErMin= 1 ErrMin= 8.53D-02
 ErrMax= 8.53D-02  0.00D+00 EMaxC= 1.00D-01 BMatC= 1.77D+00 BMatP= 1.77D+00
 IDIUse=3 WtCom= 1.47D-01 WtEn= 8.53D-01
 Coeff-Com:  0.100D+01
 Coeff-En:   0.100D+01
 Coeff:      0.100D+01
 Gap=     0.218 Goal=   None    Shift=    0.000
 GapD=    0.218 DampG=1.000 DampE=0.250 DampFc=0.2500 IDamp=-1.
 Damping current iteration by 2.50D-01
 RMSDP=1.43D-02 MaxDP=1.25D+00              OVMax= 7.32D-01

 Cycle   2  Pass 1  IDiag  1:
 E= -1544.83693966744     Delta-E=        1.663597722664 Rises=F Damp=T
 DIIS: error= 6.45D-02 at cycle   2 NSaved=   2.
 NSaved= 2 IEnMin= 1 EnMin= -1546.50053739010     IErMin= 2 ErrMin= 6.45D-02
 ErrMax= 6.45D-02  0.00D+00 EMaxC= 1.00D-01 BMatC= 1.56D+00 BMatP= 1.77D+00
 IDIUse=3 WtCom= 3.55D-01 WtEn= 6.45D-01
 Coeff-Com:  0.480D+00 0.520D+00
 Coeff-En:   0.702D+00 0.298D+00
 Coeff:      0.623D+00 0.377D+00
 Gap=    -0.114 Goal=   None    Shift=    0.000
 RMSDP=3.55D-03 MaxDP=1.37D-01 DE= 1.66D+00 OVMax= 8.10D-01

 Cycle   3  Pass 1  IDiag  1:
 E= -1546.48648815942     Delta-E=       -1.649548491976 Rises=F Damp=F
 DIIS: error= 1.09D-01 at cycle   3 NSaved=   3.
 NSaved= 3 IEnMin= 1 EnMin= -1546.50053739010     IErMin= 2 ErrMin= 6.45D-02
 ErrMax= 1.09D-01  0.00D+00 EMaxC= 1.00D-01 BMatC= 1.76D+00 BMatP= 1.56D+00
 IDIUse=2 WtCom= 0.00D+00 WtEn= 1.00D+00
 Coeff-En:   0.502D+00 0.000D+00 0.498D+00
 Coeff:      0.502D+00 0.000D+00 0.498D+00
 Gap=     0.158 Goal=   None    Shift=    0.000
 RMSDP=4.26D-03 MaxDP=1.47D-01 DE=-1.65D+00 OVMax= 5.80D-01

 Cycle   4  Pass 1  IDiag  1:
 E= -1544.63398049232     Delta-E=        1.852507667094 Rises=F Damp=F
 DIIS: error= 1.94D-01 at cycle   4 NSaved=   4.
 NSaved= 4 IEnMin= 1 EnMin= -1546.50053739010     IErMin= 2 ErrMin= 6.45D-02
 ErrMax= 1.94D-01  0.00D+00 EMaxC= 1.00D-01 BMatC= 5.87D+00 BMatP= 1.56D+00
 IDIUse=2 WtCom= 0.00D+00 WtEn= 1.00D+00
 EnCoef did     3 forward-backward iterations
 Coeff-En:   0.495D+00 0.000D+00 0.406D+00 0.990D-01
 Coeff:      0.495D+00 0.000D+00 0.406D+00 0.990D-01
 Gap=     0.066 Goal=   None    Shift=    0.000
 RMSDP=3.04D-03 MaxDP=1.13D-01 DE= 1.85D+00 OVMax= 5.21D-01

 Cycle   5  Pass 1  IDiag  1:
 E= -1547.63398513264     Delta-E=       -3.000004640318 Rises=F Damp=F
 DIIS: error= 4.16D-03 at cycle   5 NSaved=   5.
 NSaved= 5 IEnMin= 5 EnMin= -1547.63398513264     IErMin= 5 ErrMin= 4.16D-03
 ErrMax= 4.16D-03  0.00D+00 EMaxC= 1.00D-01 BMatC= 7.10D-03 BMatP= 1.56D+00
 IDIUse=3 WtCom= 9.58D-01 WtEn= 4.16D-02
 Coeff-Com:  0.268D-01-0.249D-01 0.467D-01-0.141D-01 0.965D+00
 Coeff-En:   0.000D+00 0.000D+00 0.000D+00 0.000D+00 0.100D+01
 Coeff:      0.257D-01-0.238D-01 0.448D-01-0.135D-01 0.967D+00
 Gap=     0.158 Goal=   None    Shift=    0.000
 RMSDP=3.11D-04 MaxDP=2.05D-02 DE=-3.00D+00 OVMax= 2.67D-02

 Cycle   6  Pass 1  IDiag  1:
 E= -1547.63386332558     Delta-E=        0.000121807062 Rises=F Damp=F
 DIIS: error= 8.61D-03 at cycle   6 NSaved=   6.
 NSaved= 6 IEnMin= 5 EnMin= -1547.63398513264     IErMin= 5 ErrMin= 4.16D-03
 ErrMax= 8.61D-03  0.00D+00 EMaxC= 1.00D-01 BMatC= 8.37D-03 BMatP= 7.10D-03
 IDIUse=3 WtCom= 9.58D-01 WtEn= 4.16D-02
 Coeff-Com:  0.144D-01-0.197D-01-0.154D-01-0.113D-01 0.278D+00 0.754D+00
 Coeff-En:   0.000D+00 0.000D+00 0.000D+00 0.000D+00 0.512D+00 0.488D+00
 Coeff:      0.138D-01-0.188D-01-0.148D-01-0.109D-01 0.288D+00 0.743D+00
 Gap=     0.163 Goal=   None    Shift=    0.000
 RMSDP=1.27D-04 MaxDP=8.44D-03 DE= 1.22D-04 OVMax= 1.37D-02

 Cycle   7  Pass 1  IDiag  1:
 E= -1547.63857718240     Delta-E=       -0.004713856820 Rises=F Damp=F
 DIIS: error= 2.60D-03 at cycle   7 NSaved=   7.
 NSaved= 7 IEnMin= 7 EnMin= -1547.63857718240     IErMin= 7 ErrMin= 2.60D-03
 ErrMax= 2.60D-03  0.00D+00 EMaxC= 1.00D-01 BMatC= 1.14D-03 BMatP= 7.10D-03
 IDIUse=3 WtCom= 9.74D-01 WtEn= 2.60D-02
 Coeff-Com:  0.830D-02-0.637D-02-0.152D-01-0.475D-02 0.164D-01 0.166D+00
 Coeff-Com:  0.836D+00
 Coeff-En:   0.000D+00 0.000D+00 0.000D+00 0.000D+00 0.000D+00 0.000D+00
 Coeff-En:   0.100D+01
 Coeff:      0.809D-02-0.620D-02-0.148D-01-0.462D-02 0.159D-01 0.161D+00
 Coeff:      0.840D+00
 Gap=     0.165 Goal=   None    Shift=    0.000
 RMSDP=5.05D-05 MaxDP=2.20D-03 DE=-4.71D-03 OVMax= 5.21D-03

 Cycle   8  Pass 1  IDiag  1:
 E= -1547.63920514538     Delta-E=       -0.000627962978 Rises=F Damp=F
 DIIS: error= 8.49D-04 at cycle   8 NSaved=   8.
 NSaved= 8 IEnMin= 8 EnMin= -1547.63920514538     IErMin= 8 ErrMin= 8.49D-04
 ErrMax= 8.49D-04  0.00D+00 EMaxC= 1.00D-01 BMatC= 1.42D-04 BMatP= 1.14D-03
 IDIUse=3 WtCom= 9.92D-01 WtEn= 8.49D-03
 Coeff-Com:  0.298D-02-0.784D-03-0.604D-02-0.747D-03-0.380D-01-0.849D-01
 Coeff-Com:  0.461D+00 0.666D+00
 Coeff-En:   0.000D+00 0.000D+00 0.000D+00 0.000D+00 0.000D+00 0.000D+00
 Coeff-En:   0.000D+00 0.100D+01
 Coeff:      0.296D-02-0.778D-03-0.599D-02-0.740D-03-0.377D-01-0.842D-01
 Coeff:      0.457D+00 0.669D+00
 Gap=     0.165 Goal=   None    Shift=    0.000
 RMSDP=2.09D-05 MaxDP=7.12D-04 DE=-6.28D-04 OVMax= 1.91D-03

 Cycle   9  Pass 1  IDiag  1:
 E= -1547.63928249359     Delta-E=       -0.000077348212 Rises=F Damp=F
 DIIS: error= 1.48D-04 at cycle   9 NSaved=   9.
 NSaved= 9 IEnMin= 9 EnMin= -1547.63928249359     IErMin= 9 ErrMin= 1.48D-04
 ErrMax= 1.48D-04  0.00D+00 EMaxC= 1.00D-01 BMatC= 4.19D-06 BMatP= 1.42D-04
 IDIUse=3 WtCom= 9.99D-01 WtEn= 1.48D-03
 Coeff-Com:  0.444D-03 0.622D-04-0.924D-03 0.236D-04-0.105D-01-0.441D-01
 Coeff-Com:  0.770D-01 0.229D+00 0.749D+00
 Coeff-En:   0.000D+00 0.000D+00 0.000D+00 0.000D+00 0.000D+00 0.000D+00
 Coeff-En:   0.000D+00 0.000D+00 0.100D+01
 Coeff:      0.443D-03 0.621D-04-0.922D-03 0.236D-04-0.105D-01-0.440D-01
 Coeff:      0.769D-01 0.229D+00 0.749D+00
 Gap=     0.165 Goal=   None    Shift=    0.000
 RMSDP=4.64D-06 MaxDP=2.19D-04 DE=-7.73D-05 OVMax= 4.48D-04

 Cycle  10  Pass 1  IDiag  1:
 E= -1547.63928469170     Delta-E=       -0.000002198115 Rises=F Damp=F
 DIIS: error= 1.66D-05 at cycle  10 NSaved=  10.
 NSaved=10 IEnMin=10 EnMin= -1547.63928469170     IErMin=10 ErrMin= 1.66D-05
 ErrMax= 1.66D-05  0.00D+00 EMaxC= 1.00D-01 BMatC= 1.06D-07 BMatP= 4.19D-06
 IDIUse=1 WtCom= 1.00D+00 WtEn= 0.00D+00
 Coeff-Com: -0.270D-04 0.250D-04 0.664D-04 0.406D-05 0.559D-03-0.811D-02
 Coeff-Com: -0.107D-02 0.414D-01 0.207D+00 0.760D+00
 Coeff:     -0.270D-04 0.250D-04 0.664D-04 0.406D-05 0.559D-03-0.811D-02
 Coeff:     -0.107D-02 0.414D-01 0.207D+00 0.760D+00
 Gap=     0.165 Goal=   None    Shift=    0.000
 RMSDP=1.31D-06 MaxDP=7.59D-05 DE=-2.20D-06 OVMax= 9.95D-05

 Cycle  11  Pass 1  IDiag  1:
 E= -1547.63928471657     Delta-E=       -0.000000024868 Rises=F Damp=F
 DIIS: error= 1.70D-05 at cycle  11 NSaved=  11.
 NSaved=11 IEnMin=11 EnMin= -1547.63928471657     IErMin=10 ErrMin= 1.66D-05
 ErrMax= 1.70D-05  0.00D+00 EMaxC= 1.00D-01 BMatC= 5.60D-08 BMatP= 1.06D-07
 IDIUse=1 WtCom= 1.00D+00 WtEn= 0.00D+00
 Coeff-Com: -0.216D-04 0.226D-04 0.608D-05-0.291D-06 0.649D-03 0.408D-03
 Coeff-Com:  0.102D-02 0.356D-02 0.114D-01 0.205D+00 0.778D+00
 Coeff:     -0.216D-04 0.226D-04 0.608D-05-0.291D-06 0.649D-03 0.408D-03
 Coeff:      0.102D-02 0.356D-02 0.114D-01 0.205D+00 0.778D+00
 Gap=     0.165 Goal=   None    Shift=    0.000
 RMSDP=3.91D-07 MaxDP=2.30D-05 DE=-2.49D-08 OVMax= 4.06D-05

 Cycle  12  Pass 1  IDiag  1:
 E= -1547.63928474910     Delta-E=       -0.000000032528 Rises=F Damp=F
 DIIS: error= 7.77D-06 at cycle  12 NSaved=  12.
 NSaved=12 IEnMin=12 EnMin= -1547.63928474910     IErMin=12 ErrMin= 7.77D-06
 ErrMax= 7.77D-06  0.00D+00 EMaxC= 1.00D-01 BMatC= 1.01D-08 BMatP= 5.60D-08
 IDIUse=1 WtCom= 1.00D+00 WtEn= 0.00D+00
 Coeff-Com: -0.120D-04 0.965D-05-0.757D-05-0.198D-05 0.323D-03 0.106D-02
 Coeff-Com:  0.937D-03-0.131D-02-0.646D-02 0.266D-01 0.213D+00 0.766D+00
 Coeff:     -0.120D-04 0.965D-05-0.757D-05-0.198D-05 0.323D-03 0.106D-02
 Coeff:      0.937D-03-0.131D-02-0.646D-02 0.266D-01 0.213D+00 0.766D+00
 Gap=     0.165 Goal=   None    Shift=    0.000
 RMSDP=1.59D-07 MaxDP=1.22D-05 DE=-3.25D-08 OVMax= 1.32D-05

 Cycle  13  Pass 1  IDiag  1:
 E= -1547.63928475343     Delta-E=       -0.000000004334 Rises=F Damp=F
 DIIS: error= 4.13D-06 at cycle  13 NSaved=  13.
 NSaved=13 IEnMin=13 EnMin= -1547.63928475343     IErMin=13 ErrMin= 4.13D-06
 ErrMax= 4.13D-06  0.00D+00 EMaxC= 1.00D-01 BMatC= 2.54D-09 BMatP= 1.01D-08
 IDIUse=1 WtCom= 1.00D+00 WtEn= 0.00D+00
 Coeff-Com: -0.102D-06 0.713D-06-0.132D-04-0.453D-06-0.213D-04 0.408D-03
 Coeff-Com:  0.499D-03-0.299D-03-0.203D-02-0.336D-01-0.132D+00 0.151D+00
 Coeff-Com:  0.102D+01
 Coeff:     -0.102D-06 0.713D-06-0.132D-04-0.453D-06-0.213D-04 0.408D-03
 Coeff:      0.499D-03-0.299D-03-0.203D-02-0.336D-01-0.132D+00 0.151D+00
 Coeff:      0.102D+01
 Gap=     0.165 Goal=   None    Shift=    0.000
 RMSDP=1.25D-07 MaxDP=1.05D-05 DE=-4.33D-09 OVMax= 1.09D-05

 Cycle  14  Pass 1  IDiag  1:
 E= -1547.63928475516     Delta-E=       -0.000000001731 Rises=F Damp=F
 DIIS: error= 1.86D-07 at cycle  14 NSaved=  14.
 NSaved=14 IEnMin=14 EnMin= -1547.63928475516     IErMin=14 ErrMin= 1.86D-07
 ErrMax= 1.86D-07  0.00D+00 EMaxC= 1.00D-01 BMatC= 5.56D-12 BMatP= 2.54D-09
 IDIUse=1 WtCom= 1.00D+00 WtEn= 0.00D+00
 Coeff-Com:  0.521D-06 0.625D-07-0.716D-06 0.127D-06-0.275D-04-0.926D-04
 Coeff-Com: -0.921D-04 0.251D-03 0.103D-02 0.770D-03-0.117D-01-0.762D-01
 Coeff-Com:  0.443D-01 0.104D+01
 Coeff:      0.521D-06 0.625D-07-0.716D-06 0.127D-06-0.275D-04-0.926D-04
 Coeff:     -0.921D-04 0.251D-03 0.103D-02 0.770D-03-0.117D-01-0.762D-01
 Coeff:      0.443D-01 0.104D+01
 Gap=     0.165 Goal=   None    Shift=    0.000
 RMSDP=1.40D-08 MaxDP=5.82D-07 DE=-1.73D-09 OVMax= 1.93D-06

 Cycle  15  Pass 1  IDiag  1:
 E= -1547.63928475517     Delta-E=       -0.000000000008 Rises=F Damp=F
 DIIS: error= 3.61D-08 at cycle  15 NSaved=  15.
 NSaved=15 IEnMin=15 EnMin= -1547.63928475517     IErMin=15 ErrMin= 3.61D-08
 ErrMax= 3.61D-08  0.00D+00 EMaxC= 1.00D-01 BMatC= 2.48D-13 BMatP= 5.56D-12
 IDIUse=1 WtCom= 1.00D+00 WtEn= 0.00D+00
 Coeff-Com:  0.191D-07-0.748D-10 0.230D-06 0.465D-07-0.584D-05-0.255D-04
 Coeff-Com: -0.174D-04 0.424D-04 0.260D-03 0.122D-02 0.154D-02-0.128D-01
 Coeff-Com: -0.209D-01 0.168D+00 0.862D+00
 Coeff:      0.191D-07-0.748D-10 0.230D-06 0.465D-07-0.584D-05-0.255D-04
 Coeff:     -0.174D-04 0.424D-04 0.260D-03 0.122D-02 0.154D-02-0.128D-01
 Coeff:     -0.209D-01 0.168D+00 0.862D+00
 Gap=     0.165 Goal=   None    Shift=    0.000
 RMSDP=2.33D-09 MaxDP=9.22D-08 DE=-8.19D-12 OVMax= 2.68D-07

 SCF Done:  E(RPBE1PBE) =  -1547.63928476     A.U. after   15 cycles
            NFock= 15  Conv=0.23D-08     -V/T= 2.2703
 KE= 1.218336815199D+03 PE=-4.559520328944D+03 EE= 1.270839296601D+03
 Leave Link  502 at Thu Jun 23 14:34:16 2022, MaxMem=  1048576000 cpu:             672.1 elap:             168.4
 (Enter /home/pcmt/gaussian/g16.C.01/g16/l801.exe)
 DoSCS=F DFT=T ScalE2(SS,OS)=  1.000000  1.000000
 Range of M.O.s used for correlation:    22   253
 NBasis=   253 NAE=    41 NBE=    41 NFC=    21 NFV=     0
 NROrb=    232 NOA=    20 NOB=    20 NVA=   212 NVB=   212

 **** Warning!!: The largest alpha MO coefficient is  0.11472559D+02

 Leave Link  801 at Thu Jun 23 14:34:16 2022, MaxMem=  1048576000 cpu:               0.1 elap:               0.1
 (Enter /home/pcmt/gaussian/g16.C.01/g16/l914.exe)
 RHF ground state
 Keep R1, R2, and R3 ints in memory in symmetry-blocked form, NReq=646036278.
 FoFCou: FMM=F IPFlag=           0 FMFlag=           0 FMFlg1=           0
         NFxFlg=           0 DoJE=F BraDBF=F KetDBF=F FulRan=T
         wScrn=  0.000000 ICntrl=       600 IOpCl=  0 I1Cent=           0 NGrid=           0
         NMat0=    1 NMatS0=  32131 NMatT0=    0 NMatD0=    1 NMtDS0=    0 NMtDT0=    0
 Petite list used in FoFCou.
 MDV=  1048576000 DFT=T DoStab=F Mixed=T DoRPA=T DoScal=F NonHer=T
 Making orbital integer symmetry assigments:
 Orbital symmetries:
       Occupied  (B1) (A1) (B2) (A1) (A1) (B1) (A1) (B1) (A1) (B2)
                 (B1) (A1) (A1) (B1) (B2) (A2) (A1) (B1) (A2) (B2)
                 (A1) (A1) (B2) (B1) (A1) (A1) (A1) (B1) (B2) (A2)
                 (B2) (A1) (B1) (A1) (B2) (A1) (B1) (A1) (B1) (A2)
                 (B2)
       Virtual   (A1) (B1) (B2) (A2) (A1) (B1) (A1) (B1) (A1) (B2)
                 (A1) (B2) (B1) (A1) (A2) (B2) (A1) (B2) (A1) (B1)
                 (A2) (B2) (B1) (A1) (A1) (B2) (B1) (A2) (A1) (B1)
                 (A2) (B2) (A1) (B1) (A1) (B2) (B1) (A2) (A1) (B1)
                 (B2) (A1) (A1) (B1) (A1) (B2) (A2) (B2) (A1) (B1)
                 (A1) (B1) (A2) (B2) (A1) (B2) (A1) (B1) (A1) (A1)
                 (B1) (B1) (B2) (A1) (A2) (A1) (B1) (B2) (A1) (B1)
                 (B2) (A2) (B2) (A2) (A1) (A2) (A2) (B2) (A1) (B1)
                 (A1) (B2) (B1) (B2) (A1) (B1) (A1) (B2) (B1) (A2)
                 (A1) (B2) (A2) (B1) (B1) (A2) (A1) (A1) (B2) (B1)
                 (B2) (B1) (A1) (B1) (A2) (A1) (A1) (B2) (B2) (A1)
                 (B1) (A2) (B1) (A1) (A2) (A1) (B1) (B2) (B2) (A2)
                 (A1) (A1) (B1) (B2) (A2) (A1) (B1) (A1) (B2) (A1)
                 (B2) (B2) (B2) (A2) (B1) (A1) (B1) (A1) (A1) (B2)
                 (A2) (B1) (A2) (B2) (B1) (A1) (A1) (B2) (A2) (A1)
                 (B2) (B1) (A1) (A1) (B1) (A1) (B1) (A2) (B2) (B2)
                 (A2) (B2) (B1) (A1) (A2) (A1) (B1) (B2) (A1) (B1)
                 (A1) (B2) (A2) (A1) (B2) (A1) (B2) (A2) (B1) (A1)
                 (B1) (A1) (A2) (B2) (B1) (A1) (A2) (B2) (B1) (A1)
                 (A1) (B1) (A2) (B2) (A1) (A1) (B1) (B2) (A1) (B1)
                 (A1) (A1) (B2) (A1) (B1) (B2) (A1) (A1) (B1) (B2)
                 (A1) (A1)
    16 initial guesses have been made.
 Convergence on wavefunction:    0.000001000000000
 Davidson Disk Diagonalization:  ConvIn= 1.00D-06 SkipCon=T Conv= 1.00D-06.
 Max sub-space:  2000 roots to seek:    16 dimension of matrix:         8480
 Iteration     1 Dimension    16 NMult     0 NNew     16
 CISAX will form    16 AO SS matrices at one time.
 NMat=    16 NSing=     0 JSym2X=-1.
 Defaulting to unpruned grid for atomic number  92.
 Defaulting to unpruned grid for atomic number  92.
 Defaulting to unpruned grid for atomic number  92.
 Defaulting to unpruned grid for atomic number  92.
 New state      1 was old state      2
 New state      2 was old state      1
 New state      3 was old state      4
 New state      4 was old state      3
 Excitation Energies [eV] at current iteration:
 Root      1 :     2.779893427372611
 Root      2 :     2.788240821437963
 Root      3 :     2.882191423011409
 Root      4 :     2.884694081859900
 Root      5 :     3.144706569459935
 Root      6 :     3.156246064504120
 Root      7 :     3.236538831739093
 Root      8 :     3.291785766511974
 Root      9 :     3.310413567313763
 Root     10 :     3.353821010904570
 Root     11 :     3.532681983093265
 Root     12 :     3.539385018457928
 Root     13 :     3.613268731441338
 Root     14 :     3.626394233201147
 Root     15 :     3.801382444379667
 Root     16 :     3.821647492948427
 Iteration     2 Dimension    24 NMult    16 NNew      8
 CISAX will form     8 AO SS matrices at one time.
 NMat=     8 NSing=     0 JSym2X=-1.
 New state      1 was old state      4
 Root      1 not converged, maximum delta is    0.496629386779846
 New state      2 was old state      3
 Root      2 not converged, maximum delta is    0.460350759401491
 New state      3 was old state      2
 Root      3 not converged, maximum delta is    0.394725824216191
 New state      4 was old state      1
 Root      4 not converged, maximum delta is    0.370554734281720
 Excitation Energies [eV] at current iteration:
 Root      1 :     2.197910002361071   Change is   -0.686784079498829
 Root      2 :     2.270832230187252   Change is   -0.611359192824157
 Root      3 :     2.306224218774837   Change is   -0.482016602663127
 Root      4 :     2.318188225107140   Change is   -0.461705202265471
 Iteration     3 Dimension    32 NMult    24 NNew      8
 CISAX will form     8 AO SS matrices at one time.
 NMat=     8 NSing=     0 JSym2X=-1.
 Root      1 not converged, maximum delta is    0.033514681859489
 Root      2 not converged, maximum delta is    0.044986166524535
 Root      3 not converged, maximum delta is    0.052519220142767
 Root      4 not converged, maximum delta is    0.066727123409236
 Excitation Energies [eV] at current iteration:
 Root      1 :     2.152695211384795   Change is   -0.045214790976276
 Root      2 :     2.217201580812037   Change is   -0.053630649375214
 Root      3 :     2.255335313007916   Change is   -0.050888905766920
 Root      4 :     2.260273946743446   Change is   -0.057914278363694
 Iteration     4 Dimension    40 NMult    32 NNew      8
 CISAX will form     8 AO SS matrices at one time.
 NMat=     8 NSing=     0 JSym2X=-1.
 Root      1 not converged, maximum delta is    0.008770227734736
 Root      2 not converged, maximum delta is    0.008089031257948
 Root      3 not converged, maximum delta is    0.002915914021857
 Root      4 not converged, maximum delta is    0.003572212759635
 Excitation Energies [eV] at current iteration:
 Root      1 :     2.151145957219133   Change is   -0.001549254165661
 Root      2 :     2.215496010783269   Change is   -0.001705570028769
 Root      3 :     2.253839629208138   Change is   -0.001495683799778
 Root      4 :     2.258264936422646   Change is   -0.002009010320800
 Iteration     5 Dimension    48 NMult    40 NNew      8
 CISAX will form     8 AO SS matrices at one time.
 NMat=     8 NSing=     0 JSym2X=-1.
 Root      1 not converged, maximum delta is    0.001658616770765
 Root      2 not converged, maximum delta is    0.001664036006475
 Root      3 not converged, maximum delta is    0.001244843861615
 Root      4 not converged, maximum delta is    0.001197678643749
 Excitation Energies [eV] at current iteration:
 Root      1 :     2.151080602520251   Change is   -0.000065354698882
 Root      2 :     2.215405267424582   Change is   -0.000090743358687
 Root      3 :     2.253783420409753   Change is   -0.000056208798385
 Root      4 :     2.258200887378166   Change is   -0.000064049044480
 Iteration     6 Dimension    56 NMult    48 NNew      8
 CISAX will form     8 AO SS matrices at one time.
 NMat=     8 NSing=     0 JSym2X=-1.
 Root      1 not converged, maximum delta is    0.000575262489015
 Root      2 not converged, maximum delta is    0.000805716036304
 Root      3 not converged, maximum delta is    0.000701189514911
 Root      4 not converged, maximum delta is    0.000373568517396
 Excitation Energies [eV] at current iteration:
 Root      1 :     2.151074962194091   Change is   -0.000005640326160
 Root      2 :     2.215397739981727   Change is   -0.000007527442855
 Root      3 :     2.253775764806228   Change is   -0.000007655603525
 Root      4 :     2.258197106001347   Change is   -0.000003781376819
 Iteration     7 Dimension    64 NMult    56 NNew      8
 CISAX will form     8 AO SS matrices at one time.
 NMat=     8 NSing=     0 JSym2X=-1.
 Root      1 not converged, maximum delta is    0.000070678892232
 Root      2 not converged, maximum delta is    0.000063121088838
 Root      3 not converged, maximum delta is    0.000116253154985
 Root      4 not converged, maximum delta is    0.000160929706941
 Excitation Energies [eV] at current iteration:
 Root      1 :     2.151074757929893   Change is   -0.000000204264198
 Root      2 :     2.215397496329988   Change is   -0.000000243651739
 Root      3 :     2.253775186788820   Change is   -0.000000578017408
 Root      4 :     2.258196805874888   Change is   -0.000000300126459
 Iteration     8 Dimension    72 NMult    64 NNew      8
 CISAX will form     8 AO SS matrices at one time.
 NMat=     8 NSing=     0 JSym2X=-1.
 Root      1 not converged, maximum delta is    0.000016226478414
 Root      2 not converged, maximum delta is    0.000011887198824
 Root      3 not converged, maximum delta is    0.000027834420635
 Root      4 not converged, maximum delta is    0.000031309128531
 Excitation Energies [eV] at current iteration:
 Root      1 :     2.151074747659508   Change is   -0.000000010270385
 Root      2 :     2.215397486233339   Change is   -0.000000010096649
 Root      3 :     2.253775160002145   Change is   -0.000000026786675
 Root      4 :     2.258196774662344   Change is   -0.000000031212544
 Iteration     9 Dimension    80 NMult    72 NNew      8
 CISAX will form     8 AO SS matrices at one time.
 NMat=     8 NSing=     0 JSym2X=-1.
 Root      1 not converged, maximum delta is    0.000003778448437
 Root      2 not converged, maximum delta is    0.000001853329470
 Root      3 not converged, maximum delta is    0.000004858264836
 Root      4 not converged, maximum delta is    0.000007638822846
 Excitation Energies [eV] at current iteration:
 Root      1 :     2.151074746921501   Change is   -0.000000000738008
 Root      2 :     2.215397485856291   Change is   -0.000000000377048
 Root      3 :     2.253775158910214   Change is   -0.000000001091930
 Root      4 :     2.258196773443136   Change is   -0.000000001219208
 Iteration    10 Dimension    88 NMult    80 NNew      8
 CISAX will form     8 AO SS matrices at one time.
 NMat=     8 NSing=     0 JSym2X=-1.
 Root      1 not converged, maximum delta is    0.000001134235254
 Root      2 has converged.
 Root      3 not converged, maximum delta is    0.000001160367661
 Root      4 has converged.
 Excitation Energies [eV] at current iteration:
 Root      1 :     2.151074746882558   Change is   -0.000000000038943
 Root      2 :     2.215397485845531   Change is   -0.000000000010761
 Root      3 :     2.253775158855063   Change is   -0.000000000055151
 Root      4 :     2.258196773403819   Change is   -0.000000000039317
 Iteration    11 Dimension    92 NMult    88 NNew      4
 CISAX will form     4 AO SS matrices at one time.
 NMat=     4 NSing=     0 JSym2X=-1.
 Root      1 has converged.
 Root      2 has converged.
 Root      3 has converged.
 Root      4 has converged.
 Excitation Energies [eV] at current iteration:
 Root      1 :     2.151074746879654   Change is   -0.000000000002904
 Root      2 :     2.215397485845419   Change is   -0.000000000000111
 Root      3 :     2.253775158851781   Change is   -0.000000000003283
 Root      4 :     2.258196773403673   Change is   -0.000000000000145
 Convergence achieved on expansion vectors.
 ***********************************************************************
 Excited states from <AA,BB:AA,BB> singles matrix:
 ***********************************************************************
 
 1PDM for each excited state written to RWF  633
 Ground to excited state transition densities written to RWF  633
 Ground to excited state transition electric dipole moments (Au):
       state          X           Y           Z        Dip. S.      Osc.
         1         0.0000     -0.0000     -0.0000      0.0000      0.0000
         2         0.0000      0.0000      0.0000      0.0000      0.0000
         3         0.0000     -0.0000      0.0000      0.0000      0.0000
         4         0.0000      0.0000     -0.0000      0.0000      0.0000
 Ground to excited state transition velocity dipole moments (Au):
       state          X           Y           Z        Dip. S.      Osc.
         1        -0.0000     -0.0000      0.0000      0.0000      0.0000
         2        -0.0000      0.0000     -0.0000      0.0000      0.0000
         3        -0.0000      0.0000     -0.0000      0.0000      0.0000
         4        -0.0000      0.0000      0.0000      0.0000      0.0000
 Ground to excited state transition magnetic dipole moments (Au):
       state          X           Y           Z
         1        -0.0000     -0.0000     -0.0000
         2        -0.0000     -0.0000      0.0000
         3         0.0000      0.0000      0.0000
         4         0.0000     -0.0000      0.0000
 Ground to excited state transition velocity quadrupole moments (Au):
       state          XX          YY          ZZ          XY          XZ          YZ
         1         0.0000     -0.0000      0.0000      0.0000      0.0000     -0.0000
         2        -0.0000     -0.0000     -0.0000     -0.0000     -0.0000     -0.0000
         3        -0.0000     -0.0000      0.0000      0.0000      0.0000     -0.0000
         4        -0.0000      0.0000     -0.0000      0.0000     -0.0000     -0.0000
 <0|del|b> * <b|rxdel|0> + <0|del|b> * <b|delr+rdel|0>
 Rotatory Strengths (R) in cgs (10**-40 erg-esu-cm/Gauss)
       state          XX          YY          ZZ    R(velocity)    E-M Angle
         1        -0.0000      0.0000     -0.0000     -0.0000       90.00
         2        -0.0000     -0.0000     -0.0000     -0.0000       90.00
         3        -0.0000      0.0000     -0.0000     -0.0000       90.00
         4         0.0000      0.0000     -0.0000     -0.0000       90.00
 1/2[<0|r|b>*<b|rxdel|0> + (<0|rxdel|b>*<b|r|0>)*]
 Rotatory Strengths (R) in cgs (10**-40 erg-esu-cm/Gauss)
       state          XX          YY          ZZ     R(length)
         1         0.0000     -0.0000     -0.0000      0.0000
         2         0.0000      0.0000     -0.0000     -0.0000
         3        -0.0000      0.0000     -0.0000     -0.0000
         4        -0.0000      0.0000      0.0000     -0.0000
  1/2[<0|del|b>*<b|r|0> + (<0|r|b>*<b|del|0>)*] (Au)
       state          X           Y           Z        Dip. S.   Osc.(frdel)
         1        -0.0000      0.0000     -0.0000      0.0000      0.0000
         2        -0.0000      0.0000     -0.0000      0.0000      0.0000
         3        -0.0000     -0.0000     -0.0000      0.0000      0.0000
         4        -0.0000      0.0000     -0.0000      0.0000      0.0000

 Excitation energies and oscillator strengths:
 
 Excited State   1:      Triplet-A1     2.1511 eV  576.38 nm  f=0.0000  <S**2>=2.000
      35 -> 44        -0.45702
      41 -> 44         0.54020
 
 Excited State   2:      Triplet-B1     2.2154 eV  559.65 nm  f=0.0000  <S**2>=2.000
      35 -> 45        -0.43837
      41 -> 45         0.55505
 
 Excited State   3:      Triplet-B2     2.2538 eV  550.12 nm  f=0.0000  <S**2>=2.000
      35 -> 42        -0.40514
      41 -> 42         0.57546
 This state for optimization and/or second-order correction.
 Total Energy, E(TD-HF/TD-DFT) =  -1547.55646004    
 Copying the excited state density for this state as the 1-particle RhoCI density.
 
 Excited State   4:      Triplet-A2     2.2582 eV  549.04 nm  f=0.0000  <S**2>=2.000
      35 -> 43        -0.39771
      41 -> 43         0.58106
 SavETr:  write IOETrn=   770 NScale= 10 NData=  16 NLR=1 NState=    4 LETran=      82.
 The selected state is a triplet.
 CISGrd: IGrad=2 NXY=2 DFT=T
 CISAX will form     1 AO SS matrices at one time.
 NMat=     1 NSing=     0 JSym2X=-1.
 Leave Link  914 at Thu Jun 23 14:38:54 2022, MaxMem=  1048576000 cpu:            1111.2 elap:             278.2
 (Enter /home/pcmt/gaussian/g16.C.01/g16/l1002.exe)
 Minotr:  Closed shell wavefunction.
          Computing CIS/TDA/TD derivatives.
          Using Z-Vector for PSCF gradient.
          Skipping F1 and S1 gradient terms here.
          IDoAtm=11111
          Frozen-core window.
          Direct CPHF calculation.
          Differentiating once with respect to electric field.
                with respect to dipole field.
          Differentiating once with respect to nuclear coordinates.
          Requested convergence is 1.0D-10 RMS, and 1.0D-09 maximum.
          NewPWx=F KeepS1=T KeepF1=T KeepIn=T MapXYZ=F SortEE=F KeepMc=T.
 Keep R1 ints in memory in symmetry-blocked form, NReq=646037315.
 FoFCou: FMM=F IPFlag=           0 FMFlag=           0 FMFlg1=           0
         NFxFlg=           0 DoJE=F BraDBF=F KetDBF=F FulRan=T
         wScrn=  0.000000 ICntrl=       600 IOpCl=  0 I1Cent=           0 NGrid=           0
         NMat0=    1 NMatS0=  32131 NMatT0=    0 NMatD0=    1 NMtDS0=    0 NMtDT0=    0
 Petite list used in FoFCou.
 Two-electron integral symmetry used by symmetrizing perturbed Fock matrices.
          MDV=    1048576000 using IRadAn=       5.
          Solving linear equations separately, MaxMat=       0.
          There are     1 degrees of freedom in the 1st order CPHF.  IDoFFX=0 NUNeed=     1.
 Defaulting to unpruned grid for atomic number  92.
 Defaulting to unpruned grid for atomic number  92.
 Defaulting to unpruned grid for atomic number  92.
 Defaulting to unpruned grid for atomic number  92.
 LinEq1:  Iter=  0 NonCon=     1 RMS=2.71D-02 Max=1.07D+00 NDo=     1
 AX will form     1 AO Fock derivatives at one time.
 LinEq1:  Iter=  1 NonCon=     1 RMS=1.73D-02 Max=8.47D-01 NDo=     1
 LinEq1:  Iter=  2 NonCon=     1 RMS=1.26D-02 Max=3.15D-01 NDo=     1
 LinEq1:  Iter=  3 NonCon=     1 RMS=5.39D-03 Max=1.56D-01 NDo=     1
 LinEq1:  Iter=  4 NonCon=     1 RMS=1.86D-03 Max=5.63D-02 NDo=     1
 LinEq1:  Iter=  5 NonCon=     1 RMS=1.14D-03 Max=3.06D-02 NDo=     1
 LinEq1:  Iter=  6 NonCon=     1 RMS=4.39D-04 Max=8.41D-03 NDo=     1
 LinEq1:  Iter=  7 NonCon=     1 RMS=1.64D-04 Max=5.87D-03 NDo=     1
 LinEq1:  Iter=  8 NonCon=     1 RMS=7.31D-05 Max=2.57D-03 NDo=     1
 LinEq1:  Iter=  9 NonCon=     1 RMS=1.41D-05 Max=4.20D-04 NDo=     1
 LinEq1:  Iter= 10 NonCon=     1 RMS=4.91D-06 Max=1.51D-04 NDo=     1
 LinEq1:  Iter= 11 NonCon=     1 RMS=1.79D-06 Max=4.30D-05 NDo=     1
 LinEq1:  Iter= 12 NonCon=     1 RMS=4.30D-07 Max=1.09D-05 NDo=     1
 LinEq1:  Iter= 13 NonCon=     1 RMS=1.64D-07 Max=5.69D-06 NDo=     1
 LinEq1:  Iter= 14 NonCon=     1 RMS=3.40D-08 Max=1.07D-06 NDo=     1
 LinEq1:  Iter= 15 NonCon=     1 RMS=7.04D-09 Max=1.50D-07 NDo=     1
 LinEq1:  Iter= 16 NonCon=     1 RMS=1.70D-09 Max=3.86D-08 NDo=     1
 LinEq1:  Iter= 17 NonCon=     1 RMS=6.04D-10 Max=1.60D-08 NDo=     1
 LinEq1:  Iter= 18 NonCon=     1 RMS=1.99D-10 Max=3.76D-09 NDo=     1
 LinEq1:  Iter= 19 NonCon=     1 RMS=4.05D-11 Max=1.01D-09 NDo=     1
 LinEq1:  Iter= 20 NonCon=     0 RMS=6.13D-12 Max=1.55D-10 NDo=     1
 Linear equations converged to 1.000D-10 1.000D-09 after    20 iterations.
 End of Minotr F.D. properties file   721 does not exist.
 End of Minotr F.D. properties file   722 does not exist.
 End of Minotr F.D. properties file   788 does not exist.
 Leave Link 1002 at Thu Jun 23 14:41:54 2022, MaxMem=  1048576000 cpu:             717.9 elap:             180.0
 (Enter /home/pcmt/gaussian/g16.C.01/g16/l601.exe)
 Copying SCF densities to generalized density rwf, IOpCl= 0 IROHF=0.

 **********************************************************************

            Population analysis using the SCF Density.

 **********************************************************************

 Orbital symmetries:
       Occupied  (B1) (A1) (B2) (A1) (A1) (B1) (A1) (B1) (A1) (B2)
                 (B1) (A1) (A1) (B1) (B2) (A2) (A1) (B1) (A2) (B2)
                 (A1) (A1) (B2) (B1) (A1) (A1) (A1) (B1) (B2) (A2)
                 (B2) (A1) (B1) (A1) (B2) (A1) (B1) (A1) (B1) (A2)
                 (B2)
       Virtual   (A1) (B1) (B2) (A2) (A1) (B1) (A1) (B1) (A1) (B2)
                 (A1) (B2) (B1) (A1) (A2) (B2) (A1) (B2) (A1) (B1)
                 (A2) (B2) (B1) (A1) (A1) (B2) (B1) (A2) (A1) (B1)
[...]
 252       13F+3        0.00000   0.00159   0.00085
 253       13F-3       -0.00050   0.00000   0.00000
          Condensed to atoms (all electrons):
               1          2          3          4          5
     1  U   29.341802   0.350502   0.350502   0.196682   0.196682
     2  O    0.350502   8.016955   0.000157   0.011307   0.011307
     3  O    0.350502   0.000157   8.016955   0.011307   0.011307
     4  Cl   0.196682   0.011307   0.011307  17.169532   0.002860
     5  Cl   0.196682   0.011307   0.011307   0.002860  17.169532
 Mulliken charges:
               1
     1  U    1.563830
     2  O   -0.390228
     3  O   -0.390228
     4  Cl  -0.391687
     5  Cl  -0.391687
 Sum of Mulliken charges =  -0.00000
 Mulliken charges with hydrogens summed into heavy atoms:
               1
     1  U    1.563830
     2  O   -0.390228
     3  O   -0.390228
     4  Cl  -0.391687
     5  Cl  -0.391687
 Electronic spatial extent (au):  <R**2>=           1036.0992
 Charge=             -0.0000 electrons
 Dipole moment (field-independent basis, Debye):
    X=              0.0000    Y=              0.0000    Z=              4.8185  Tot=              4.8185
 Quadrupole moment (field-independent basis, Debye-Ang):
   XX=            -77.9626   YY=            -79.4152   ZZ=            -69.0861
   XY=              0.0000   XZ=             -0.0000   YZ=             -0.0000
 Traceless Quadrupole moment (field-independent basis, Debye-Ang):
   XX=             -2.4746   YY=             -3.9273   ZZ=              6.4019
   XY=              0.0000   XZ=             -0.0000   YZ=             -0.0000
 Octapole moment (field-independent basis, Debye-Ang**2):
  XXX=             -0.0000  YYY=             -0.0000  ZZZ=             51.7347  XYY=             -0.0000
  XXY=             -0.0000  XXZ=             25.3630  XZZ=              0.0000  YZZ=             -0.0000
  YYZ=              8.5361  XYZ=             -0.0000
 Hexadecapole moment (field-independent basis, Debye-Ang**3):
 XXXX=           -718.7215 YYYY=           -307.1720 ZZZZ=           -343.4272 XXXY=              0.0000
 XXXZ=              0.0000 YYYX=              0.0000 YYYZ=              0.0000 ZZZX=             -0.0000
 ZZZY=              0.0000 XXYY=           -164.8179 XXZZ=           -176.4115 YYZZ=           -110.4485
 XXYZ=              0.0000 YYXZ=              0.0000 ZZXY=              0.0000
 N-N= 5.189885470831D+02 E-N=-4.551800199520D+03  KE= 1.218310993220D+03
 Symmetry A1   KE= 5.500788442796D+02
 Symmetry A2   KE= 6.472233028944D+01
 Symmetry B1   KE= 4.507713203619D+02
 Symmetry B2   KE= 1.527384982888D+02
 Orbital energies and kinetic energies (alpha):
                                 1                 2
   1         (A1)--O        -101.687651        137.099356
   2         (B1)--O        -101.687650        137.099160
   3         (B2)--O         -19.277284         29.112456
   4         (A1)--O         -19.277279         29.112937
   5         (A1)--O         -12.178992          4.797651
   6         (A1)--O          -9.514430         21.561357
   7         (B1)--O          -9.514428         21.561852
   8         (A1)--O          -7.616725          5.116311
   9         (B1)--O          -7.614758          5.116477
  10         (B2)--O          -7.582724          5.110122
  11         (B1)--O          -7.243871         20.566518
  12         (A1)--O          -7.243869         20.566419
  13         (B1)--O          -7.243124         20.569368
  14         (A1)--O          -7.243124         20.569347
  15         (B2)--O          -7.241791         20.573451
  16         (A2)--O          -7.241790         20.573376
  17         (A1)--O          -3.979687          7.299246
  18         (B1)--O          -3.979254          7.301668
  19         (B2)--O          -3.965834          7.287632
  20         (A2)--O          -3.964703          7.288155
  21         (A1)--O          -3.958021          7.277841
  22         (A1)--O          -1.985002          2.826108
  23         (B2)--O          -1.244886          2.386374
  24         (A1)--O          -1.057377          2.654794
  25         (B1)--O          -1.029505          2.330369
  26         (A1)--O          -0.985370          2.928671
  27         (A1)--O          -0.807949          3.182560
  28         (B1)--O          -0.801812          3.227636
  29         (B2)--O          -0.773051          3.305026
  30         (B2)--O          -0.456291          2.127449
  31         (A2)--O          -0.454214          2.050755
  32         (A1)--O          -0.447563          2.602135
  33         (B1)--O          -0.432086          2.760920
  34         (A1)--O          -0.429034          2.830535
  35         (B2)--O          -0.399937          3.744914
  36         (A1)--O          -0.369712          2.413757
  37         (B1)--O          -0.361351          2.457379
  38         (A1)--O          -0.348824          2.200397
  39         (B1)--O          -0.336010          2.394314
  40         (A2)--O          -0.335969          2.448880
  41         (B2)--O          -0.319914          2.721824
  42         (A1)--V          -0.158348          5.590155
  43         (B1)--V          -0.157949          5.739710
  44         (B2)--V          -0.152072          5.818352
  45         (A2)--V          -0.150295          5.789348
  46         (A1)--V          -0.113182          3.834702
  47         (B1)--V          -0.104366          5.018360
  48         (A1)--V          -0.051888          2.829291
  49         (A1)--V          -0.028124          1.524804
  50         (B1)--V          -0.015724          2.138026
  51         (B2)--V           0.008567          4.734721
  52         (A1)--V           0.033500          0.463452
  53         (B2)--V           0.040203          0.414825
  54         (B1)--V           0.051204          0.767189
  55         (A1)--V           0.058739          0.869779
  56         (A2)--V           0.079732          2.217632
  57         (B2)--V           0.100868          2.376548
  58         (B2)--V           0.183621          0.944707
  59         (A1)--V           0.185579          0.799533
  60         (B1)--V           0.229269          1.273761
  61         (A1)--V           0.230921          1.268127
  62         (A2)--V           0.259272          1.091214
  63         (B1)--V           0.262381          1.370208
  64         (A1)--V           0.288613          1.453956
  65         (B2)--V           0.291587          1.988347
  66         (A1)--V           0.312529          1.516187
  67         (B2)--V           0.316218          1.399094
  68         (B1)--V           0.327650          1.595864
  69         (A1)--V           0.343310          1.542317
  70         (A2)--V           0.347282          1.652915
  71         (B1)--V           0.368310          1.594986
  72         (A1)--V           0.391219          1.571995
  73         (B2)--V           0.393666          1.621927
  74         (A2)--V           0.398525          1.751288
  75         (B1)--V           0.405237          1.638783
  76         (A1)--V           0.405436          1.586833
  77         (B2)--V           0.438732          1.537065
  78         (A2)--V           0.458357          1.592054
  79         (B1)--V           0.476428          1.984365
  80         (A1)--V           0.497609          1.659282
  81         (B1)--V           0.516657          1.605222
  82         (A1)--V           0.529409          1.532065
  83         (B2)--V           0.530346          1.697620
  84         (A1)--V           0.588422          1.867627
  85         (B2)--V           0.606429          1.870038
  86         (A1)--V           0.616368          2.708461
  87         (B1)--V           0.618147          1.987248
  88         (A2)--V           0.630779          1.760395
  89         (A1)--V           0.659976          1.928910
  90         (B2)--V           0.680766          1.574574
  91         (B1)--V           0.694567          1.795422
  92         (B1)--V           0.738027          2.032381
  93         (A1)--V           0.739548          1.987470
  94         (A2)--V           0.743819          1.657361
  95         (B2)--V           0.763297          1.607607
  96         (A1)--V           0.801856          2.149800
  97         (B2)--V           0.899268          1.989459
  98         (A1)--V           1.021235          3.915886
  99         (B1)--V           1.035249          4.154510
 100         (A1)--V           1.137345          3.879141
 101         (A1)--V           1.256951          3.686741
 102         (B1)--V           1.264266          3.649604
 103         (B1)--V           1.380447          3.968045
 104         (A2)--V           1.382793          4.122611
 105         (A1)--V           1.389911          3.572426
 106         (B2)--V           1.394434          4.115531
 107         (B2)--V           1.412917          3.960809
 108         (A1)--V           1.439319          3.874958
 109         (B1)--V           1.468114          4.078532
 110         (A1)--V           1.481492          3.667003
 111         (B1)--V           1.494658          3.316649
 112         (B2)--V           1.513829          2.983274
 113         (A2)--V           1.560145          3.086547
 114         (B2)--V           1.612264          3.382003
 115         (A2)--V           1.629802          3.371283
 116         (A1)--V           1.727391          4.276363
 117         (A1)--V           1.756930          4.571781
 118         (A2)--V           1.770172          4.760847
 119         (A2)--V           1.779218          4.830836
 120         (B2)--V           1.802686          4.705911
 121         (B1)--V           1.804425          4.780348
 122         (B2)--V           1.824984          4.683701
 123         (A1)--V           1.826735          4.714745
 124         (B1)--V           1.859647          4.820761
 125         (B1)--V           1.899830          4.504537
 126         (A1)--V           1.913024          4.417574
 127         (B2)--V           1.918203          4.372021
 128         (A1)--V           1.953465          4.323886
 129         (B2)--V           1.959984          4.543651
 130         (B1)--V           1.968769          5.217678
 131         (A2)--V           1.985306          4.155442
 132         (B1)--V           2.043319          3.886073
 133         (A1)--V           2.046144          4.044905
 134         (A2)--V           2.090159          3.204608
 135         (B2)--V           2.094710          3.574792
 136         (A1)--V           2.096770          3.310263
 137         (B1)--V           2.099810          3.223056
 138         (A2)--V           2.101887          3.193712
 139         (B2)--V           2.132688          3.361596
 140         (B1)--V           2.138427          4.019950
 141         (A1)--V           2.142251          3.568426
 142         (B1)--V           2.179217          3.620744
 143         (B2)--V           2.194008          4.658810
 144         (A1)--V           2.211495          5.326791
 145         (A2)--V           2.259157          6.718963
 146         (A1)--V           2.262311          6.747789
 147         (B1)--V           2.264691          6.719517
 148         (B2)--V           2.279368          4.695849
 149         (A1)--V           2.280717          4.774270
 150         (B2)--V           2.324950          6.546005
 151         (A1)--V           2.340858          5.073902
 152         (B1)--V           2.354511          5.521967
 153         (A2)--V           2.368729          4.956389
 154         (A1)--V           2.429039          5.760964
 155         (B1)--V           2.458276          6.065297
 156         (A2)--V           2.480209          6.110064
 157         (A1)--V           2.499749          6.239949
 158         (B2)--V           2.509321          6.169918
 159         (B1)--V           2.517696          6.240481
 160         (B2)--V           2.551369          6.640684
 161         (A2)--V           2.558080          6.292075
 162         (A1)--V           2.603747          7.099103
 163         (B1)--V           2.797354          6.928477
 164         (A1)--V           2.816090          6.966413
 165         (B2)--V           2.900705          7.124527
 166         (A2)--V           2.947890          7.108060
 167         (A1)--V           2.965564          7.008900
 168         (A1)--V           3.036474          7.739744
 169         (B1)--V           3.074272          7.081206
 170         (B2)--V           3.094869          7.769915
 171         (A1)--V           3.944126          9.080078
 172         (B2)--V           4.230138          8.829795
 173         (B2)--V           4.602146         10.426643
 174         (B2)--V           4.643959         11.507544
 175         (A2)--V           4.655254         11.799339
 176         (B1)--V           4.734782         12.562149
 177         (A1)--V           4.750105         12.041853
 178         (A1)--V           4.898964         12.001260
 179         (B1)--V           4.963501         11.963260
 180         (A1)--V           5.046043          7.069071
 181         (B1)--V           5.054372          7.258237
 182         (A2)--V           5.058761          8.175568
 183         (A2)--V           5.063674          6.466311
 184         (B2)--V           5.064182          6.442009
 185         (B1)--V           5.077259          6.489516
 186         (A1)--V           5.082218          6.560198
 187         (A1)--V           5.153292         10.078003
 188         (B2)--V           5.153329          7.304676
 189         (A2)--V           5.168937          7.365460
 190         (B2)--V           5.170131          7.330293
 191         (A1)--V           5.285472          7.253754
 192         (B2)--V           5.304461         11.085954
 193         (B1)--V           5.324329          7.425142
 194         (A1)--V           6.105375         11.748022
 195         (B1)--V           6.124852         11.937005
 196         (A1)--V           6.126909         14.657471
 197         (A2)--V           6.153907         15.932762
 198         (B1)--V           6.154027         15.653453
 199         (B2)--V           6.158561         15.546776
 200         (A1)--V           6.174866         12.700554
 201         (A2)--V           6.234714         11.772826
 202         (B1)--V           6.244685         13.406533
 203         (B2)--V           6.263649         10.197026
 204         (A1)--V           6.285081         14.393287
 205         (A2)--V           6.311837          9.780008
 206         (A1)--V           6.340556         12.375523
 207         (B1)--V           6.361336         13.000532
 208         (B2)--V           6.372070         10.897126
 209         (B2)--V           6.502095         11.451339
 210         (A1)--V           6.637085         11.600150
 211         (B1)--V           6.670981         10.681272
 212         (A1)--V           6.773319         11.207361
 213         (B2)--V           6.968273         14.446646
 214         (A2)--V           6.975896         13.758085
 215         (A1)--V           7.159065         15.531420
 216         (B2)--V           7.368784         12.605742
 217         (A1)--V           8.074988         16.199816
 218         (A2)--V           8.126900         16.149610
 219         (B2)--V           8.284047         16.028549
 220         (B1)--V           8.326463         16.443728
 221         (A1)--V           9.303299         16.811334
 222         (A1)--V          10.762507         33.595286
 223         (A2)--V          10.766081         33.587137
 224         (B1)--V          10.768491         33.605992
 225         (B2)--V          10.789789         33.606133
 226         (A1)--V          10.962713         33.599724
 227         (B1)--V          11.016940         33.591571
 228         (A2)--V          13.363794         34.650161
 229         (B2)--V          13.369654         34.648890
 230         (B1)--V          13.371410         34.638320
 231         (A1)--V          13.399795         34.632729
 232         (A1)--V          13.446493         34.628803
 233         (B1)--V          13.459065         34.630124
 234         (A2)--V          13.675607         34.576130
 235         (B2)--V          13.823137         34.618016
 236         (A1)--V          14.074027         34.598717
 237         (A1)--V          21.472425         43.578675
 238         (B1)--V          21.501564         43.628736
 239         (B2)--V          21.667349         43.882023
 240         (B1)--V          25.069963         44.362532
 241         (A1)--V          25.127192         44.426197
 242         (A1)--V          32.163035        437.410202
 243         (A1)--V          43.696323        108.705365
 244         (B2)--V          43.837734        108.854977
 245         (A1)--V          47.899360         92.992788
 246         (B1)--V          47.924209         93.008130
 247         (B2)--V          48.070189         93.085928
 248         (A1)--V          59.184174         43.859108
 249         (A1)--V         122.148767        236.564183
 250         (B1)--V         122.182027        236.599150
 251         (B2)--V         122.373765        236.786648
 252         (A1)--V         229.179070        139.220890
 253         (A1)--V         673.708406       1054.461247
 Total kinetic energy from orbitals= 1.218310993220D+03
 No NMR shielding tensors so no spin-rotation constants.
 Leave Link  601 at Thu Jun 23 15:56:39 2022, MaxMem=  1048576000 cpu:               1.5 elap:               0.4
 (Enter /home/pcmt/gaussian/g16.C.01/g16/l9999.exe)
 Electronic transition elements 
                 1             2             3             4 
      1  -0.154757D+04 -0.154756D+04 -0.154756D+04 -0.154756D+04
      2   0.000000D+00  0.000000D+00  0.000000D+00  0.000000D+00
      3   0.000000D+00  0.000000D+00  0.000000D+00  0.000000D+00
      4   0.000000D+00  0.000000D+00  0.000000D+00  0.000000D+00
      5   0.000000D+00  0.000000D+00  0.000000D+00  0.000000D+00
      6   0.000000D+00  0.000000D+00  0.000000D+00  0.000000D+00
      7   0.000000D+00  0.000000D+00  0.000000D+00  0.000000D+00
      8   0.000000D+00  0.000000D+00  0.000000D+00  0.000000D+00
      9   0.000000D+00  0.000000D+00  0.000000D+00  0.000000D+00
     10   0.000000D+00  0.000000D+00  0.000000D+00  0.000000D+00
     11   0.000000D+00  0.000000D+00  0.000000D+00  0.000000D+00
     12   0.000000D+00  0.000000D+00  0.000000D+00  0.000000D+00
     13   0.000000D+00  0.000000D+00  0.000000D+00  0.000000D+00
     14   0.000000D+00  0.000000D+00  0.000000D+00  0.000000D+00
     15   0.000000D+00  0.000000D+00  0.000000D+00  0.000000D+00
     16   0.000000D+00  0.000000D+00  0.000000D+00  0.000000D+00

 Test job not archived.
 1\1\GINC-U-0-12\FOpt\RPBE1PBE TD-FC\Gen\Cl2O2U1\VALLET\23-Jun-2022\0\\
 #p PBE1PBE/GEN GFInput GFPrint 5D 7F Pseudo=Read IOP(2/9=2, 4/69=2, 6/
 7=3, 8/10=91, 8/37=22, 8/38=0) EmpiricalDispersion=GD3BJ Symm=(Loose) 
 Int=(UltraFine) Guess=(Harris) Scf=(NoVarAcc,MaxCycle=100,conver=8) td
 =(triplets,nstates=4,root=3) Opt=Tight\\[UO2Cl4]2- - PBE0+D3BJ - ES\\0
 ,1\U,0.,0.2599826888,0.\O,-1.7471664162,0.5261014148,0.\O,1.7471664162
 ,0.5261014148,0.\Cl,0.,-1.3028634536,-1.9845266617\Cl,0.,-1.3028634536
 ,1.9845266617\\Version=ES64L-G16RevC.01\State=1-A1\HF=-1547.6430498\RM
 SD=7.493e-09\RMSF=9.384e-07\Dipole=0.,1.6963006,0.\PG=C02V [C2(U1),SGV
 (O2),SGV'(Cl2)]\\@


 WE TEND TO MEET ANY NEW SITUATION BY REORGANIZING. IT CAN BE A
 WONDERFUL METHOD FOR CREATING THE ILLUSION OF PROGRESS WHILE PRODUCING
 CONFUSION, INEFFICIENCY, AND DEMORALIZATION.
     -- PETRONIUS ARBITER, 210 B.C.
 Job cpu time:       0 days  5 hours 36 minutes 36.3 seconds.
 Elapsed time:       0 days  1 hours 25 minutes 13.2 seconds.
 File lengths (MBytes):  RWF=    261 Int=      0 D2E=      0 Chk=     14 Scr=      1
 Normal termination of Gaussian 16 at Thu Jun 23 15:56:39 2022.
