 Entering Gaussian System, Link 0=/home/pcmt/gaussian/g16.C.01/g16/g16
 AtFile(1): /home/vallet/basis/U-ECP60MWB_SEG
 AtFile(1): /home/vallet/basis/U-ECP60MWB
 Initial command:
 /home/pcmt/gaussian/g16.C.01/g16/l1.exe "/state/partition1/vallet/866077.phlam-s-sakura/Gau-109564.inp" -scrdir="/state/partition1/vallet/866077.phlam-s-sakura/"
 Entering Link 1 = /home/pcmt/gaussian/g16.C.01/g16/l1.exe PID=    109565.
  
 Copyright (c) 1988-2019, Gaussian, Inc.  All Rights Reserved.
  
 This is part of the Gaussian(R) 16 program.  It is based on
 the Gaussian(R) 09 system (copyright 2009, Gaussian, Inc.),
 the Gaussian(R) 03 system (copyright 2003, Gaussian, Inc.),
 the Gaussian(R) 98 system (copyright 1998, Gaussian, Inc.),
 the Gaussian(R) 94 system (copyright 1995, Gaussian, Inc.),
 the Gaussian 92(TM) system (copyright 1992, Gaussian, Inc.),
 the Gaussian 90(TM) system (copyright 1990, Gaussian, Inc.),
 the Gaussian 88(TM) system (copyright 1988, Gaussian, Inc.),
 the Gaussian 86(TM) system (copyright 1986, Carnegie Mellon
 University), and the Gaussian 82(TM) system (copyright 1983,
 Carnegie Mellon University). Gaussian is a federally registered
 trademark of Gaussian, Inc.
  
 This software contains proprietary and confidential information,
 including trade secrets, belonging to Gaussian, Inc.
  
 This software is provided under written license and may be
 used, copied, transmitted, or stored only in accord with that
 written license.
  
 The following legend is applicable only to US Government
 contracts under FAR:
  
                    RESTRICTED RIGHTS LEGEND
  
 Use, reproduction and disclosure by the US Government is
 subject to restrictions as set forth in subparagraphs (a)
 and (c) of the Commercial Computer Software - Restricted
 Rights clause in FAR 52.227-19.
  
 Gaussian, Inc.
 340 Quinnipiac St., Bldg. 40, Wallingford CT 06492
  
  
 ---------------------------------------------------------------
 Warning -- This program may not be used in any manner that
 competes with the business of Gaussian, Inc. or will provide
 assistance to any competitor of Gaussian, Inc.  The licensee
 of this program is prohibited from giving any competitor of
 Gaussian, Inc. access to this program.  By using this program,
 the user acknowledges that Gaussian, Inc. is engaged in the
 business of creating and licensing software in the field of
 computational chemistry and represents and warrants to the
 licensee that it is not a competitor of Gaussian, Inc. and that
 it will not use this program in any manner prohibited above.
 ---------------------------------------------------------------
  

 Cite this work as:
 Gaussian 16, Revision C.01,
 M. J. Frisch, G. W. Trucks, H. B. Schlegel, G. E. Scuseria, 
 M. A. Robb, J. R. Cheeseman, G. Scalmani, V. Barone, 
 G. A. Petersson, H. Nakatsuji, X. Li, M. Caricato, A. V. Marenich, 
 J. Bloino, B. G. Janesko, R. Gomperts, B. Mennucci, H. P. Hratchian, 
 J. V. Ortiz, A. F. Izmaylov, J. L. Sonnenberg, D. Williams-Young, 
 F. Ding, F. Lipparini, F. Egidi, J. Goings, B. Peng, A. Petrone, 
 T. Henderson, D. Ranasinghe, V. G. Zakrzewski, J. Gao, N. Rega, 
 G. Zheng, W. Liang, M. Hada, M. Ehara, K. Toyota, R. Fukuda, 
 J. Hasegawa, M. Ishida, T. Nakajima, Y. Honda, O. Kitao, H. Nakai, 
 T. Vreven, K. Throssell, J. A. Montgomery, Jr., J. E. Peralta, 
 F. Ogliaro, M. J. Bearpark, J. J. Heyd, E. N. Brothers, K. N. Kudin, 
 V. N. Staroverov, T. A. Keith, R. Kobayashi, J. Normand, 
 K. Raghavachari, A. P. Rendell, J. C. Burant, S. S. Iyengar, 
 J. Tomasi, M. Cossi, J. M. Millam, M. Klene, C. Adamo, R. Cammi, 
 J. W. Ochterski, R. L. Martin, K. Morokuma, O. Farkas, 
 J. B. Foresman, and D. J. Fox, Gaussian, Inc., Wallingford CT, 2019.
 
 ******************************************
 Gaussian 16:  ES64L-G16RevC.01  3-Jul-2019
                24-Jun-2022 
 ******************************************
 %mem=8000Mb
 %NProc=4
 Will use up to    4 processors via shared memory.
 %oldchk=tddft-s3-uo2_cl2.pbe0-d3.optg.chk
 %chk=tddft-s3-uo2_cl2.pbe0-d3.freq.chk
 Copying data from "tddft-s3-uo2_cl2.pbe0-d3.optg.chk" to current chk file "tddft-s3-uo2_cl2.pbe0-d3.freq.chk"
 IOpt=  2 FromEx=T IUOpen= 4 IOptOp= 5 NList=   0 IFRang= 0 IUIn= 4 IUOut= 2.
 ----------------------------------------------------------------------
 #p PBE1PBE/GEN GFInput GFPrint 5D 7F Pseudo=Read IOP(2/9=2, 4/69=2, 6/
 7=3, 8/10=91, 8/37=22, 8/38=0) EmpiricalDispersion=GD3BJ Symm=(Loose) 
 Int=(UltraFine) Guess=(CheckPoint) Geom=CheckPoint Scf=(NoVarAcc,MaxCy
 cle=100,conver=8) td=(triplets,nstates=4,root=3) Freq
 ----------------------------------------------------------------------
 1/10=4,29=2,30=1,38=1/1,3;
 2/9=2,12=2,17=4,18=3,40=1/2;
 3/5=7,8=11,11=9,14=-4,16=1,17=8,24=110,25=1,30=1,71=2,74=-13,75=-5,116=-2,124=41,140=1/1,2,3,8;
 4/5=1,69=2/1;
 5/5=2,6=8,7=100,38=6,98=1/2;
 8/6=1,10=91,37=22,107=3,108=4/1;
 9/8=3,15=3,41=4,42=1,48=3,70=2/14;
 10/5=2004,20=4,28=3/2;
 11/6=1,8=1,12=-3,16=1,42=3/1,2,10;
 10/6=3,21=1,28=3/2,14;
 6/7=3,8=2,9=2,10=2/1;
 7/8=1,10=1,12=6,13=8,14=3,25=1,44=2/1,2,3,16;
 1/10=4,30=1/3;
 99//99;
 Leave Link    1 at Fri Jun 24 11:48:07 2022, MaxMem=  1048576000 cpu:               0.6 elap:               0.3
 (Enter /home/pcmt/gaussian/g16.C.01/g16/l101.exe)
 ---------------------------
 [UO2Cl4]2- - PBE0+D3BJ - ES
 ---------------------------
 Structure from the checkpoint file:  "tddft-s3-uo2_cl2.pbe0-d3.freq.chk"
 Charge =  0 Multiplicity = 1
 Redundant internal coordinates found in file.  (old form).
 U,0,0.,0.2599826888,0.
 O,0,-1.7471664162,0.5261014148,0.
 O,0,1.7471664162,0.5261014148,0.
 Cl,0,0.,-1.3028634536,-1.9845266617
 Cl,0,0.,-1.3028634536,1.9845266617
 Recover connectivity data from disk.
 ITRead=  0  0  0  0  0
 MicOpt= -1 -1 -1 -1 -1
 NAtoms=      5 NQM=        5 NQMF=       0 NMMI=      0 NMMIF=      0
                NMic=       0 NMicF=      0.
                    Isotopes and Nuclear Properties:
 (Nuclear quadrupole moments (NQMom) in fm**2, nuclear magnetic moments (NMagM)
  in nuclear magnetons)

  Atom         1           2           3           4           5
 IAtWgt=         238          16          16          35          35
 AtmWgt= 238.0508000  15.9949146  15.9949146  34.9688527  34.9688527
 NucSpn=           0           0           0           3           3
 AtZEff=   0.0000000   5.6000000   5.6000000  14.2400000  14.2400000
 NQMom=    0.0000000   0.0000000   0.0000000  -8.1650000  -8.1650000
 NMagM=    0.0000000   0.0000000   0.0000000   0.8218740   0.8218740
 AtZNuc=  92.0000000   8.0000000   8.0000000  17.0000000  17.0000000
 Leave Link  101 at Fri Jun 24 11:48:07 2022, MaxMem=  1048576000 cpu:               0.8 elap:               0.3
 (Enter /home/pcmt/gaussian/g16.C.01/g16/l103.exe)

 GradGradGradGradGradGradGradGradGradGradGradGradGradGradGradGradGradGrad
 Berny optimization.
 Initialization pass.
                           ----------------------------
                           !    Initial Parameters    !
                           ! (Angstroms and Degrees)  !
 --------------------------                            --------------------------
 ! Name  Definition              Value          Derivative Info.                !
 --------------------------------------------------------------------------------
 ! R1    R(1,2)                  1.7673         calculate D2E/DX2 analytically  !
 ! R2    R(1,3)                  1.7673         calculate D2E/DX2 analytically  !
 ! R3    R(1,4)                  2.526          calculate D2E/DX2 analytically  !
 ! R4    R(1,5)                  2.526          calculate D2E/DX2 analytically  !
 ! A1    A(2,1,4)               95.3455         calculate D2E/DX2 analytically  !
 ! A2    A(2,1,5)               95.3455         calculate D2E/DX2 analytically  !
 ! A3    A(3,1,4)               95.3455         calculate D2E/DX2 analytically  !
 ! A4    A(3,1,5)               95.3455         calculate D2E/DX2 analytically  !
 ! A5    A(4,1,5)              103.558          calculate D2E/DX2 analytically  !
 ! A6    L(2,1,3,4,-1)         190.6911         calculate D2E/DX2 analytically  !
 ! A7    L(2,1,3,4,-2)         166.3525         calculate D2E/DX2 analytically  !
 ! D1    D(2,1,5,4)             96.8237         calculate D2E/DX2 analytically  !
 ! D2    D(3,1,5,4)            -96.8237         calculate D2E/DX2 analytically  !
 --------------------------------------------------------------------------------
 Trust Radius=3.00D-01 FncErr=1.00D-07 GrdErr=1.00D-07 EigMax=2.50D+02 EigMin=1.00D-04
 Number of steps in this run=      2 maximum allowed number of steps=      2.
 GradGradGradGradGradGradGradGradGradGradGradGradGradGradGradGradGradGrad

 Leave Link  103 at Fri Jun 24 11:48:07 2022, MaxMem=  1048576000 cpu:               0.1 elap:               0.1
 (Enter /home/pcmt/gaussian/g16.C.01/g16/l202.exe)
                          Input orientation:                          
 ---------------------------------------------------------------------
 Center     Atomic      Atomic             Coordinates (Angstroms)
 Number     Number       Type             X           Y           Z
 ---------------------------------------------------------------------
      1         92           0        0.000000    0.259983    0.000000
      2          8           0       -1.747166    0.526101   -0.000000
      3          8           0        1.747166    0.526101    0.000000
      4         17           0        0.000000   -1.302863   -1.984527
      5         17           0       -0.000000   -1.302863    1.984527
 ---------------------------------------------------------------------
                    Distance matrix (angstroms):
                    1          2          3          4          5
     1  U    0.000000
     2  O    1.767317   0.000000
     3  O    1.767317   3.494333   0.000000
     4  Cl   2.526031   3.214973   3.214973   0.000000
     5  Cl   2.526031   3.214973   3.214973   3.969053   0.000000
 Stoichiometry    Cl2O2U
 Framework group  C2V[C2(U),SGV(O2),SGV'(Cl2)]
 Deg. of freedom     4
 Full point group                 C2V     NOp   4
 RotChk:  IX=0 Diff= 3.06D-15
 Largest Abelian subgroup         C2V     NOp   4
 Largest concise Abelian subgroup C2V     NOp   4
                         Standard orientation:                         
 ---------------------------------------------------------------------
 Center     Atomic      Atomic             Coordinates (Angstroms)
 Number     Number       Type             X           Y           Z
 ---------------------------------------------------------------------
      1         92           0        0.000000    0.000000    0.344217
      2          8           0       -0.000000    1.747166    0.610336
      3          8           0       -0.000000   -1.747166    0.610336
      4         17           0        1.984527   -0.000000   -1.218629
      5         17           0       -1.984527    0.000000   -1.218629
 ---------------------------------------------------------------------
 Rotational constants (GHZ):           2.0982284           1.3545740           1.2071724
 Leave Link  202 at Fri Jun 24 11:48:07 2022, MaxMem=  1048576000 cpu:               0.2 elap:               0.1
 (Enter /home/pcmt/gaussian/g16.C.01/g16/l301.exe)
 General basis read from cards:  (5D, 7F)
 Centers:       1
 S 3 1.00
     Exponent=  1.2098082000D+04 Coefficients=  1.0200000000D-04
     Exponent=  1.8337573000D+03 Coefficients=  7.7100000000D-04
     Exponent=  3.5168632000D+02 Coefficients=  2.9690000000D-03
 S 1 1.00
     Exponent=  1.0431426000D+02 Coefficients=  1.0000000000D+00
 S 3 1.00
     Exponent=  6.0905822000D+01 Coefficients=  4.9868000000D-02
     Exponent=  3.5515086000D+01 Coefficients= -2.4531300000D-01
     Exponent=  2.0891227000D+01 Coefficients=  7.2384700000D-01
 S 1 1.00
     Exponent=  1.0184647000D+01 Coefficients=  1.0000000000D+00
 S 1 1.00
     Exponent=  2.8518510000D+00 Coefficients=  1.0000000000D+00
 S 1 1.00
     Exponent=  1.5316160000D+00 Coefficients=  1.0000000000D+00
 S 1 1.00
     Exponent=  6.1620300000D-01 Coefficients=  1.0000000000D+00
 S 1 1.00
     Exponent=  2.7949400000D-01 Coefficients=  1.0000000000D+00
 S 1 1.00
     Exponent=  5.7253000000D-02 Coefficients=  1.0000000000D+00
 S 1 1.00
     Exponent=  2.3443000000D-02 Coefficients=  1.0000000000D+00
 P 5 1.00
     Exponent=  2.9068451000D+03 Coefficients=  8.8000000000D-05
     Exponent=  6.9440053000D+02 Coefficients=  7.3200000000D-04
     Exponent=  2.2463479000D+02 Coefficients=  3.4140000000D-03
     Exponent=  8.0520526000D+01 Coefficients=  1.1099000000D-02
     Exponent=  2.4080211000D+01 Coefficients=  2.5216000000D-02
 P 1 1.00
     Exponent=  1.4077580000D+01 Coefficients=  1.0000000000D+00
 P 1 1.00
     Exponent=  8.2658460000D+00 Coefficients=  1.0000000000D+00
 P 1 1.00
     Exponent=  3.4236070000D+00 Coefficients=  1.0000000000D+00
 P 1 1.00
     Exponent=  1.7084170000D+00 Coefficients=  1.0000000000D+00
 P 1 1.00
     Exponent=  6.5504600000D-01 Coefficients=  1.0000000000D+00
 P 1 1.00
     Exponent=  2.8375500000D-01 Coefficients=  1.0000000000D+00
 P 1 1.00
     Exponent=  1.0181400000D-01 Coefficients=  1.0000000000D+00
 P 1 1.00
     Exponent=  3.0535000000D-02 Coefficients=  1.0000000000D+00
 D 6 1.00
     Exponent=  4.4901953000D+02 Coefficients=  5.0000000000D-05
     Exponent=  1.5635695000D+02 Coefficients=  3.2200000000D-04
     Exponent=  6.0242439000D+01 Coefficients=  1.7770000000D-03
     Exponent=  1.7772317000D+01 Coefficients=  2.5385000000D-02
     Exponent=  1.0454304000D+01 Coefficients= -8.9378000000D-02
     Exponent=  3.5834330000D+00 Coefficients=  4.4479900000D-01
 D 1 1.00
     Exponent=  1.7637240000D+00 Coefficients=  1.0000000000D+00
 D 1 1.00
     Exponent=  7.8403000000D-01 Coefficients=  1.0000000000D+00
 D 1 1.00
     Exponent=  2.7612700000D-01 Coefficients=  1.0000000000D+00
 D 1 1.00
     Exponent=  8.6980000000D-02 Coefficients=  1.0000000000D+00
 F 5 1.00
     Exponent=  1.0528793000D+02 Coefficients=  2.2800000000D-04
     Exponent=  3.5101181000D+01 Coefficients=  2.3080000000D-03
     Exponent=  1.4564138000D+01 Coefficients=  9.2530000000D-03
     Exponent=  4.6518850000D+00 Coefficients=  1.3694900000D-01
     Exponent=  2.2559730000D+00 Coefficients=  3.3980100000D-01
 F 1 1.00
     Exponent=  1.0102740000D+00 Coefficients=  1.0000000000D+00
 F 1 1.00
     Exponent=  4.1168000000D-01 Coefficients=  1.0000000000D+00
 F 1 1.00
     Exponent=  1.4412000000D-01 Coefficients=  1.0000000000D+00
 G 4 1.00
     Exponent=  1.0528793000D+02 Coefficients=  1.3700000000D-04
     Exponent=  3.5101181000D+01 Coefficients=  1.8310000000D-03
     Exponent=  1.4564138000D+01 Coefficients=  1.9940000000D-02
     Exponent=  4.6518850000D+00 Coefficients=  1.1075800000D-01
 G 1 1.00
     Exponent=  2.2559730000D+00 Coefficients=  1.0000000000D+00
 G 1 1.00
     Exponent=  1.0102740000D+00 Coefficients=  1.0000000000D+00
 ****
 Centers:       4      5
 Def2TZVP
 ****
 Centers:       2      3
 Def2TZVP
 ****
 ======================================================================================================
                                       Pseudopotential Parameters
 ======================================================================================================
  Center     Atomic      Valence      Angular      Power
  Number     Number     Electrons     Momentum     of R      Exponent        Coefficient   SO-Coeffient
 ======================================================================================================
    1         92           32
                                      H and up 
                                                     2        1.0000000        0.00000000    0.00000000
                                      S - H
                                                     2       16.4140387      536.51662778    0.00000000
                                      P - H
                                                     2        9.0605561      169.54492465    0.00000000
                                      D - H
                                                     2        8.8318320      142.61559837    0.00000000
                                      F - H
                                                     2        7.0185163       60.39307602    0.00000000
                                      G - H
                                                     2       12.8040884      -60.12998958    0.00000000
    2          8
                                   No pseudopotential on this center.
    3          8
                                   No pseudopotential on this center.
    4         17
                                   No pseudopotential on this center.
    5         17
                                   No pseudopotential on this center.
 ======================================================================================================
 Ernie: Thresh=  0.10000D-02 Tol=  0.10000D-05 Strict=F.
 AO basis set in the form of general basis input (Overlap normalization):
      1 0
 S   3 1.00       0.000000000000
      0.1209808200D+05  0.2884168448D-01
      0.1833757300D+04  0.2180092033D+00
      0.3516863200D+03  0.8395192276D+00
 S   3 1.00       0.000000000000
      0.6090582200D+02  0.9338504807D-01
      0.3551508600D+02 -0.4593840999D+00
      0.2089122700D+02  0.1355508280D+01
 S   1 1.00       0.000000000000
      0.1043142600D+03  0.1000000000D+01
 S   1 1.00       0.000000000000
      0.1018464700D+02  0.1000000000D+01
 S   1 1.00       0.000000000000
      0.2851851000D+01  0.1000000000D+01
 S   1 1.00       0.000000000000
      0.1531616000D+01  0.1000000000D+01
 S   1 1.00       0.000000000000
      0.6162030000D+00  0.1000000000D+01
 S   1 1.00       0.000000000000
      0.2794940000D+00  0.1000000000D+01
 S   1 1.00       0.000000000000
      0.5725300000D-01  0.1000000000D+01
 S   1 1.00       0.000000000000
      0.2344300000D-01  0.1000000000D+01
 P   5 1.00       0.000000000000
      0.2906845100D+04  0.2490724940D-02
      0.6944005300D+03  0.2071830291D-01
      0.2246347900D+03  0.9662880620D-01
      0.8052052600D+02  0.3141426831D+00
      0.2408021100D+02  0.7137059101D+00
 P   1 1.00       0.000000000000
      0.1407758000D+02  0.1000000000D+01
 P   1 1.00       0.000000000000
      0.8265846000D+01  0.1000000000D+01
 P   1 1.00       0.000000000000
      0.3423607000D+01  0.1000000000D+01
 P   1 1.00       0.000000000000
      0.1708417000D+01  0.1000000000D+01
 P   1 1.00       0.000000000000
      0.6550460000D+00  0.1000000000D+01
 P   1 1.00       0.000000000000
      0.2837550000D+00  0.1000000000D+01
 P   1 1.00       0.000000000000
      0.1018140000D+00  0.1000000000D+01
 P   1 1.00       0.000000000000
      0.3053500000D-01  0.1000000000D+01
 D   6 1.00       0.000000000000
      0.4490195300D+03  0.1244413406D-03
      0.1563569500D+03  0.8014022332D-03
      0.6024243900D+02  0.4422645243D-02
      0.1777231700D+02  0.6317886860D-01
      0.1045430400D+02 -0.2224463627D+00
      0.3583433000D+01  0.1107027677D+01
 D   1 1.00       0.000000000000
      0.1763724000D+01  0.1000000000D+01
 D   1 1.00       0.000000000000
      0.7840300000D+00  0.1000000000D+01
 D   1 1.00       0.000000000000
      0.2761270000D+00  0.1000000000D+01
 D   1 1.00       0.000000000000
      0.8698000000D-01  0.1000000000D+01
 F   5 1.00       0.000000000000
      0.1052879300D+03  0.5015876177D-03
      0.3510118100D+02  0.5077474656D-02
      0.1456413800D+02  0.2035609748D-01
      0.4651885000D+01  0.3012803625D+00
      0.2255973000D+01  0.7475437460D+00
 F   1 1.00       0.000000000000
      0.1010274000D+01  0.1000000000D+01
 F   1 1.00       0.000000000000
      0.4116800000D+00  0.1000000000D+01
 F   1 1.00       0.000000000000
      0.1441200000D+00  0.1000000000D+01
 G   4 1.00       0.000000000000
      0.1052879300D+03  0.1132460043D-02
      0.3510118100D+02  0.1513528715D-01
      0.1456413800D+02  0.1648266662D+00
      0.4651885000D+01  0.9155402153D+00
 G   1 1.00       0.000000000000
      0.2255973000D+01  0.1000000000D+01
 G   1 1.00       0.000000000000
      0.1010274000D+01  0.1000000000D+01
 ****
      2 0
 S   6 1.00       0.000000000000
      0.2703238263D+05  0.5722733521D-03
      0.4052387139D+04  0.4435323349D-02
      0.9223272271D+03  0.2302010771D-01
      0.2612407099D+03  0.9282249067D-01
      0.8535464135D+02  0.2937850001D+00
      0.3103503524D+02  0.6740160450D+00
 S   2 1.00       0.000000000000
      0.1226086073D+02  0.6383993703D+00
      0.4998707601D+01  0.3953458713D+00
 S   1 1.00       0.000000000000
      0.1170310816D+01  0.1000000000D+01
 S   1 1.00       0.000000000000
      0.4647474099D+00  0.1000000000D+01
 S   1 1.00       0.000000000000
      0.1850453636D+00  0.1000000000D+01
 P   4 1.00       0.000000000000
      0.6327495480D+02  0.1201833222D-01
      0.1462704938D+02  0.8300542179D-01
      0.4450122346D+01  0.3199174393D+00
      0.1527579965D+01  0.7071554292D+00
 P   1 1.00       0.000000000000
      0.5293511794D+00  0.1000000000D+01
 P   1 1.00       0.000000000000
      0.1747842127D+00  0.1000000000D+01
 D   1 1.00       0.000000000000
      0.2314000000D+01  0.1000000000D+01
 D   1 1.00       0.000000000000
      0.6450000000D+00  0.1000000000D+01
 F   1 1.00       0.000000000000
      0.1428000000D+01  0.1000000000D+01
 ****
      3 0
 S   6 1.00       0.000000000000
      0.2703238263D+05  0.5722733521D-03
      0.4052387139D+04  0.4435323349D-02
      0.9223272271D+03  0.2302010771D-01
      0.2612407099D+03  0.9282249067D-01
      0.8535464135D+02  0.2937850001D+00
      0.3103503524D+02  0.6740160450D+00
 S   2 1.00       0.000000000000
      0.1226086073D+02  0.6383993703D+00
      0.4998707601D+01  0.3953458713D+00
 S   1 1.00       0.000000000000
      0.1170310816D+01  0.1000000000D+01
 S   1 1.00       0.000000000000
      0.4647474099D+00  0.1000000000D+01
 S   1 1.00       0.000000000000
      0.1850453636D+00  0.1000000000D+01
 P   4 1.00       0.000000000000
      0.6327495480D+02  0.1201833222D-01
      0.1462704938D+02  0.8300542179D-01
      0.4450122346D+01  0.3199174393D+00
      0.1527579965D+01  0.7071554292D+00
 P   1 1.00       0.000000000000
      0.5293511794D+00  0.1000000000D+01
 P   1 1.00       0.000000000000
      0.1747842127D+00  0.1000000000D+01
 D   1 1.00       0.000000000000
      0.2314000000D+01  0.1000000000D+01
 D   1 1.00       0.000000000000
      0.6450000000D+00  0.1000000000D+01
 F   1 1.00       0.000000000000
      0.1428000000D+01  0.1000000000D+01
 ****
      4 0
 S   7 1.00       0.000000000000
      0.6950799094D+05  0.5145738965D-03
      0.1042615688D+05  0.3978134481D-02
      0.2373233406D+04  0.2045617867D-01
      0.6715642007D+03  0.8014810289D-01
      0.2184199979D+03  0.2345477032D+00
      0.7757224971D+02  0.4454336858D+00
      0.2888881528D+02  0.3546684250D+00
 S   3 1.00       0.000000000000
      0.1271052718D+03  0.1129368805D+00
      0.3933958296D+02  0.4837351421D+00
      0.7674067999D+01 -0.1229229739D+01
 S   2 1.00       0.000000000000
      0.3874562763D+01  0.6729682164D+00
      0.1838583257D+01  0.3495605141D+00
 S   1 1.00       0.000000000000
      0.5022905754D+00  0.1000000000D+01
 S   1 1.00       0.000000000000
      0.1796272342D+00  0.1000000000D+01
 P   5 1.00       0.000000000000
      0.6665042328D+03  0.3350250820D-02
      0.1576424169D+03  0.2676397041D-01
      0.5026252098D+02  0.1236268236D+00
      0.1853607811D+02  0.3584578792D+00
      0.7294053278D+01  0.6167729635D+00
 P   1 1.00       0.000000000000
      0.2943324899D+01  0.1000000000D+01
 P   1 1.00       0.000000000000
      0.1040497082D+01  0.1000000000D+01
 P   1 1.00       0.000000000000
      0.3845641508D+00  0.1000000000D+01
 P   1 1.00       0.000000000000
      0.1306964273D+00  0.1000000000D+01
 D   2 1.00       0.000000000000
      0.4610000000D+01  0.1826583505D+00
      0.1011000000D+01  0.9132917523D+00
 D   1 1.00       0.000000000000
      0.3390000000D+00  0.1000000000D+01
 F   1 1.00       0.000000000000
      0.7060000000D+00  0.1000000000D+01
 ****
      5 0
 S   7 1.00       0.000000000000
      0.6950799094D+05  0.5145738965D-03
      0.1042615688D+05  0.3978134481D-02
      0.2373233406D+04  0.2045617867D-01
      0.6715642007D+03  0.8014810289D-01
      0.2184199979D+03  0.2345477032D+00
      0.7757224971D+02  0.4454336858D+00
      0.2888881528D+02  0.3546684250D+00
 S   3 1.00       0.000000000000
      0.1271052718D+03  0.1129368805D+00
      0.3933958296D+02  0.4837351421D+00
      0.7674067999D+01 -0.1229229739D+01
 S   2 1.00       0.000000000000
      0.3874562763D+01  0.6729682164D+00
      0.1838583257D+01  0.3495605141D+00
 S   1 1.00       0.000000000000
      0.5022905754D+00  0.1000000000D+01
 S   1 1.00       0.000000000000
      0.1796272342D+00  0.1000000000D+01
 P   5 1.00       0.000000000000
      0.6665042328D+03  0.3350250820D-02
      0.1576424169D+03  0.2676397041D-01
      0.5026252098D+02  0.1236268236D+00
      0.1853607811D+02  0.3584578792D+00
      0.7294053278D+01  0.6167729635D+00
 P   1 1.00       0.000000000000
      0.2943324899D+01  0.1000000000D+01
 P   1 1.00       0.000000000000
      0.1040497082D+01  0.1000000000D+01
 P   1 1.00       0.000000000000
      0.3845641508D+00  0.1000000000D+01
 P   1 1.00       0.000000000000
      0.1306964273D+00  0.1000000000D+01
 D   2 1.00       0.000000000000
      0.4610000000D+01  0.1826583505D+00
      0.1011000000D+01  0.9132917523D+00
 D   1 1.00       0.000000000000
      0.3390000000D+00  0.1000000000D+01
 F   1 1.00       0.000000000000
      0.7060000000D+00  0.1000000000D+01
 ****

 AO basis set (Overlap normalization):
 Atom U1       Shell     1 S   3     bf    1 -     1          0.000000000000          0.000000000000          0.650476592359
      0.1209808200D+05  0.2884168448D-01
      0.1833757300D+04  0.2180092033D+00
      0.3516863200D+03  0.8395192276D+00
 Atom U1       Shell     2 S   3     bf    2 -     2          0.000000000000          0.000000000000          0.650476592359
      0.6090582200D+02  0.9338504807D-01
      0.3551508600D+02 -0.4593840999D+00
      0.2089122700D+02  0.1355508280D+01
 Atom U1       Shell     3 S   1     bf    3 -     3          0.000000000000          0.000000000000          0.650476592359
      0.1043142600D+03  0.1000000000D+01
 Atom U1       Shell     4 S   1     bf    4 -     4          0.000000000000          0.000000000000          0.650476592359
      0.1018464700D+02  0.1000000000D+01
 Atom U1       Shell     5 S   1     bf    5 -     5          0.000000000000          0.000000000000          0.650476592359
      0.2851851000D+01  0.1000000000D+01
 Atom U1       Shell     6 S   1     bf    6 -     6          0.000000000000          0.000000000000          0.650476592359
      0.1531616000D+01  0.1000000000D+01
 Atom U1       Shell     7 S   1     bf    7 -     7          0.000000000000          0.000000000000          0.650476592359
      0.6162030000D+00  0.1000000000D+01
 Atom U1       Shell     8 S   1     bf    8 -     8          0.000000000000          0.000000000000          0.650476592359
      0.2794940000D+00  0.1000000000D+01
 Atom U1       Shell     9 S   1     bf    9 -     9          0.000000000000          0.000000000000          0.650476592359
      0.5725300000D-01  0.1000000000D+01
 Atom U1       Shell    10 S   1     bf   10 -    10          0.000000000000          0.000000000000          0.650476592359
      0.2344300000D-01  0.1000000000D+01
 Atom U1       Shell    11 P   5     bf   11 -    13          0.000000000000          0.000000000000          0.650476592359
      0.2906845100D+04  0.2490724940D-02
      0.6944005300D+03  0.2071830291D-01
      0.2246347900D+03  0.9662880620D-01
      0.8052052600D+02  0.3141426831D+00
      0.2408021100D+02  0.7137059101D+00
 Atom U1       Shell    12 P   1     bf   14 -    16          0.000000000000          0.000000000000          0.650476592359
      0.1407758000D+02  0.1000000000D+01
 Atom U1       Shell    13 P   1     bf   17 -    19          0.000000000000          0.000000000000          0.650476592359
      0.8265846000D+01  0.1000000000D+01
 Atom U1       Shell    14 P   1     bf   20 -    22          0.000000000000          0.000000000000          0.650476592359
      0.3423607000D+01  0.1000000000D+01
 Atom U1       Shell    15 P   1     bf   23 -    25          0.000000000000          0.000000000000          0.650476592359
      0.1708417000D+01  0.1000000000D+01
 Atom U1       Shell    16 P   1     bf   26 -    28          0.000000000000          0.000000000000          0.650476592359
      0.6550460000D+00  0.1000000000D+01
 Atom U1       Shell    17 P   1     bf   29 -    31          0.000000000000          0.000000000000          0.650476592359
      0.2837550000D+00  0.1000000000D+01
 Atom U1       Shell    18 P   1     bf   32 -    34          0.000000000000          0.000000000000          0.650476592359
      0.1018140000D+00  0.1000000000D+01
 Atom U1       Shell    19 P   1     bf   35 -    37          0.000000000000          0.000000000000          0.650476592359
      0.3053500000D-01  0.1000000000D+01
 Atom U1       Shell    20 D   6     bf   38 -    42          0.000000000000          0.000000000000          0.650476592359
      0.4490195300D+03  0.1244413406D-03
      0.1563569500D+03  0.8014022332D-03
      0.6024243900D+02  0.4422645243D-02
      0.1777231700D+02  0.6317886860D-01
      0.1045430400D+02 -0.2224463627D+00
      0.3583433000D+01  0.1107027677D+01
 Atom U1       Shell    21 D   1     bf   43 -    47          0.000000000000          0.000000000000          0.650476592359
      0.1763724000D+01  0.1000000000D+01
 Atom U1       Shell    22 D   1     bf   48 -    52          0.000000000000          0.000000000000          0.650476592359
      0.7840300000D+00  0.1000000000D+01
 Atom U1       Shell    23 D   1     bf   53 -    57          0.000000000000          0.000000000000          0.650476592359
      0.2761270000D+00  0.1000000000D+01
 Atom U1       Shell    24 D   1     bf   58 -    62          0.000000000000          0.000000000000          0.650476592359
      0.8698000000D-01  0.1000000000D+01
 Atom U1       Shell    25 F   5     bf   63 -    69          0.000000000000          0.000000000000          0.650476592359
      0.1052879300D+03  0.5015876177D-03
      0.3510118100D+02  0.5077474656D-02
      0.1456413800D+02  0.2035609748D-01
      0.4651885000D+01  0.3012803625D+00
      0.2255973000D+01  0.7475437460D+00
 Atom U1       Shell    26 F   1     bf   70 -    76          0.000000000000          0.000000000000          0.650476592359
      0.1010274000D+01  0.1000000000D+01
 Atom U1       Shell    27 F   1     bf   77 -    83          0.000000000000          0.000000000000          0.650476592359
      0.4116800000D+00  0.1000000000D+01
 Atom U1       Shell    28 F   1     bf   84 -    90          0.000000000000          0.000000000000          0.650476592359
      0.1441200000D+00  0.1000000000D+01
 Atom U1       Shell    29 G   4     bf   91 -    99          0.000000000000          0.000000000000          0.650476592359
      0.1052879300D+03  0.1132460043D-02
      0.3510118100D+02  0.1513528715D-01
      0.1456413800D+02  0.1648266662D+00
      0.4651885000D+01  0.9155402153D+00
 Atom U1       Shell    30 G   1     bf  100 -   108          0.000000000000          0.000000000000          0.650476592359
      0.2255973000D+01  0.1000000000D+01
 Atom U1       Shell    31 G   1     bf  109 -   117          0.000000000000          0.000000000000          0.650476592359
      0.1010274000D+01  0.1000000000D+01
 Atom O2       Shell    32 S   6     bf  118 -   118         -0.000000000000          3.301666020597          1.153368101115
      0.2703238263D+05  0.5722733521D-03
      0.4052387139D+04  0.4435323349D-02
      0.9223272271D+03  0.2302010771D-01
      0.2612407099D+03  0.9282249067D-01
      0.8535464135D+02  0.2937850001D+00
      0.3103503524D+02  0.6740160450D+00
 Atom O2       Shell    33 S   2     bf  119 -   119         -0.000000000000          3.301666020597          1.153368101115
      0.1226086073D+02  0.6383993703D+00
      0.4998707601D+01  0.3953458713D+00
 Atom O2       Shell    34 S   1     bf  120 -   120         -0.000000000000          3.301666020597          1.153368101115
      0.1170310816D+01  0.1000000000D+01
 Atom O2       Shell    35 S   1     bf  121 -   121         -0.000000000000          3.301666020597          1.153368101115
      0.4647474099D+00  0.1000000000D+01
 Atom O2       Shell    36 S   1     bf  122 -   122         -0.000000000000          3.301666020597          1.153368101115
      0.1850453636D+00  0.1000000000D+01
 Atom O2       Shell    37 P   4     bf  123 -   125         -0.000000000000          3.301666020597          1.153368101115
      0.6327495480D+02  0.1201833222D-01
      0.1462704938D+02  0.8300542179D-01
      0.4450122346D+01  0.3199174393D+00
      0.1527579965D+01  0.7071554292D+00
 Atom O2       Shell    38 P   1     bf  126 -   128         -0.000000000000          3.301666020597          1.153368101115
      0.5293511794D+00  0.1000000000D+01
 Atom O2       Shell    39 P   1     bf  129 -   131         -0.000000000000          3.301666020597          1.153368101115
      0.1747842127D+00  0.1000000000D+01
 Atom O2       Shell    40 D   1     bf  132 -   136         -0.000000000000          3.301666020597          1.153368101115
      0.2314000000D+01  0.1000000000D+01
 Atom O2       Shell    41 D   1     bf  137 -   141         -0.000000000000          3.301666020597          1.153368101115
      0.6450000000D+00  0.1000000000D+01
 Atom O2       Shell    42 F   1     bf  142 -   148         -0.000000000000          3.301666020597          1.153368101115
      0.1428000000D+01  0.1000000000D+01
 Atom O3       Shell    43 S   6     bf  149 -   149         -0.000000000000         -3.301666020597          1.153368101115
      0.2703238263D+05  0.5722733521D-03
      0.4052387139D+04  0.4435323349D-02
      0.9223272271D+03  0.2302010771D-01
      0.2612407099D+03  0.9282249067D-01
      0.8535464135D+02  0.2937850001D+00
      0.3103503524D+02  0.6740160450D+00
 Atom O3       Shell    44 S   2     bf  150 -   150         -0.000000000000         -3.301666020597          1.153368101115
      0.1226086073D+02  0.6383993703D+00
      0.4998707601D+01  0.3953458713D+00
 Atom O3       Shell    45 S   1     bf  151 -   151         -0.000000000000         -3.301666020597          1.153368101115
      0.1170310816D+01  0.1000000000D+01
 Atom O3       Shell    46 S   1     bf  152 -   152         -0.000000000000         -3.301666020597          1.153368101115
      0.4647474099D+00  0.1000000000D+01
 Atom O3       Shell    47 S   1     bf  153 -   153         -0.000000000000         -3.301666020597          1.153368101115
      0.1850453636D+00  0.1000000000D+01
 Atom O3       Shell    48 P   4     bf  154 -   156         -0.000000000000         -3.301666020597          1.153368101115
      0.6327495480D+02  0.1201833222D-01
      0.1462704938D+02  0.8300542179D-01
      0.4450122346D+01  0.3199174393D+00
      0.1527579965D+01  0.7071554292D+00
 Atom O3       Shell    49 P   1     bf  157 -   159         -0.000000000000         -3.301666020597          1.153368101115
      0.5293511794D+00  0.1000000000D+01
 Atom O3       Shell    50 P   1     bf  160 -   162         -0.000000000000         -3.301666020597          1.153368101115
      0.1747842127D+00  0.1000000000D+01
 Atom O3       Shell    51 D   1     bf  163 -   167         -0.000000000000         -3.301666020597          1.153368101115
      0.2314000000D+01  0.1000000000D+01
 Atom O3       Shell    52 D   1     bf  168 -   172         -0.000000000000         -3.301666020597          1.153368101115
      0.6450000000D+00  0.1000000000D+01
 Atom O3       Shell    53 F   1     bf  173 -   179         -0.000000000000         -3.301666020597          1.153368101115
      0.1428000000D+01  0.1000000000D+01
 Atom Cl4      Shell    54 S   7     bf  180 -   180          3.750211877524         -0.000000000000         -2.302874591614
      0.6950799094D+05  0.5145738965D-03
      0.1042615688D+05  0.3978134481D-02
      0.2373233406D+04  0.2045617867D-01
      0.6715642007D+03  0.8014810289D-01
      0.2184199979D+03  0.2345477032D+00
      0.7757224971D+02  0.4454336858D+00
      0.2888881528D+02  0.3546684250D+00
 Atom Cl4      Shell    55 S   3     bf  181 -   181          3.750211877524         -0.000000000000         -2.302874591614
      0.1271052718D+03  0.1129368805D+00
      0.3933958296D+02  0.4837351421D+00
      0.7674067999D+01 -0.1229229739D+01
 Atom Cl4      Shell    56 S   2     bf  182 -   182          3.750211877524         -0.000000000000         -2.302874591614
      0.3874562763D+01  0.6729682164D+00
      0.1838583257D+01  0.3495605141D+00
 Atom Cl4      Shell    57 S   1     bf  183 -   183          3.750211877524         -0.000000000000         -2.302874591614
      0.5022905754D+00  0.1000000000D+01
 Atom Cl4      Shell    58 S   1     bf  184 -   184          3.750211877524         -0.000000000000         -2.302874591614
      0.1796272342D+00  0.1000000000D+01
 Atom Cl4      Shell    59 P   5     bf  185 -   187          3.750211877524         -0.000000000000         -2.302874591614
      0.6665042328D+03  0.3350250820D-02
      0.1576424169D+03  0.2676397041D-01
      0.5026252098D+02  0.1236268236D+00
      0.1853607811D+02  0.3584578792D+00
      0.7294053278D+01  0.6167729635D+00
 Atom Cl4      Shell    60 P   1     bf  188 -   190          3.750211877524         -0.000000000000         -2.302874591614
      0.2943324899D+01  0.1000000000D+01
 Atom Cl4      Shell    61 P   1     bf  191 -   193          3.750211877524         -0.000000000000         -2.302874591614
      0.1040497082D+01  0.1000000000D+01
 Atom Cl4      Shell    62 P   1     bf  194 -   196          3.750211877524         -0.000000000000         -2.302874591614
      0.3845641508D+00  0.1000000000D+01
 Atom Cl4      Shell    63 P   1     bf  197 -   199          3.750211877524         -0.000000000000         -2.302874591614
      0.1306964273D+00  0.1000000000D+01
 Atom Cl4      Shell    64 D   2     bf  200 -   204          3.750211877524         -0.000000000000         -2.302874591614
      0.4610000000D+01  0.1826583505D+00
      0.1011000000D+01  0.9132917523D+00
 Atom Cl4      Shell    65 D   1     bf  205 -   209          3.750211877524         -0.000000000000         -2.302874591614
      0.3390000000D+00  0.1000000000D+01
 Atom Cl4      Shell    66 F   1     bf  210 -   216          3.750211877524         -0.000000000000         -2.302874591614
      0.7060000000D+00  0.1000000000D+01
 Atom Cl5      Shell    67 S   7     bf  217 -   217         -3.750211877524          0.000000000000         -2.302874591614
      0.6950799094D+05  0.5145738965D-03
      0.1042615688D+05  0.3978134481D-02
      0.2373233406D+04  0.2045617867D-01
      0.6715642007D+03  0.8014810289D-01
      0.2184199979D+03  0.2345477032D+00
      0.7757224971D+02  0.4454336858D+00
      0.2888881528D+02  0.3546684250D+00
 Atom Cl5      Shell    68 S   3     bf  218 -   218         -3.750211877524          0.000000000000         -2.302874591614
      0.1271052718D+03  0.1129368805D+00
      0.3933958296D+02  0.4837351421D+00
      0.7674067999D+01 -0.1229229739D+01
 Atom Cl5      Shell    69 S   2     bf  219 -   219         -3.750211877524          0.000000000000         -2.302874591614
      0.3874562763D+01  0.6729682164D+00
      0.1838583257D+01  0.3495605141D+00
 Atom Cl5      Shell    70 S   1     bf  220 -   220         -3.750211877524          0.000000000000         -2.302874591614
      0.5022905754D+00  0.1000000000D+01
 Atom Cl5      Shell    71 S   1     bf  221 -   221         -3.750211877524          0.000000000000         -2.302874591614
      0.1796272342D+00  0.1000000000D+01
 Atom Cl5      Shell    72 P   5     bf  222 -   224         -3.750211877524          0.000000000000         -2.302874591614
      0.6665042328D+03  0.3350250820D-02
      0.1576424169D+03  0.2676397041D-01
      0.5026252098D+02  0.1236268236D+00
      0.1853607811D+02  0.3584578792D+00
      0.7294053278D+01  0.6167729635D+00
 Atom Cl5      Shell    73 P   1     bf  225 -   227         -3.750211877524          0.000000000000         -2.302874591614
      0.2943324899D+01  0.1000000000D+01
 Atom Cl5      Shell    74 P   1     bf  228 -   230         -3.750211877524          0.000000000000         -2.302874591614
      0.1040497082D+01  0.1000000000D+01
 Atom Cl5      Shell    75 P   1     bf  231 -   233         -3.750211877524          0.000000000000         -2.302874591614
      0.3845641508D+00  0.1000000000D+01
 Atom Cl5      Shell    76 P   1     bf  234 -   236         -3.750211877524          0.000000000000         -2.302874591614
      0.1306964273D+00  0.1000000000D+01
 Atom Cl5      Shell    77 D   2     bf  237 -   241         -3.750211877524          0.000000000000         -2.302874591614
      0.4610000000D+01  0.1826583505D+00
      0.1011000000D+01  0.9132917523D+00
 Atom Cl5      Shell    78 D   1     bf  242 -   246         -3.750211877524          0.000000000000         -2.302874591614
      0.3390000000D+00  0.1000000000D+01
 Atom Cl5      Shell    79 F   1     bf  247 -   253         -3.750211877524          0.000000000000         -2.302874591614
      0.7060000000D+00  0.1000000000D+01
 Effective core potential in the form of general ECP input:
      1 0
 U1-ECP   5 60
 H component
  1
  2        1.0000000        0.00000000    0.00000000
 S-H projection
  1
  2       16.4140387      536.51662778    0.00000000
 P-H projection
  1
  2        9.0605561      169.54492465    0.00000000
 D-H projection
  1
  2        8.8318320      142.61559837    0.00000000
 F-H projection
  1
  2        7.0185163       60.39307602    0.00000000
 G-H projection
  1
  2       12.8040884      -60.12998958    0.00000000
 
 There are   118 symmetry adapted cartesian basis functions of A1  symmetry.
 There are    42 symmetry adapted cartesian basis functions of A2  symmetry.
 There are    75 symmetry adapted cartesian basis functions of B1  symmetry.
 There are    73 symmetry adapted cartesian basis functions of B2  symmetry.
 There are    92 symmetry adapted basis functions of A1  symmetry.
 There are    37 symmetry adapted basis functions of A2  symmetry.
 There are    63 symmetry adapted basis functions of B1  symmetry.
 There are    61 symmetry adapted basis functions of B2  symmetry.
   253 basis functions,   523 primitive gaussians,   308 cartesian basis functions
    41 alpha electrons       41 beta electrons
       nuclear repulsion energy       518.9941581181 Hartrees.
 IExCor= 1009 DFT=T Ex+Corr=PBE1PBE ExCW=0 ScaHFX=  0.250000
 ScaDFX=  0.750000  0.750000  1.000000  1.000000 ScalE2=  1.000000  1.000000
 IRadAn=      5 IRanWt=     -1 IRanGd=            0 ICorTp=0 IEmpDi=141
 NAtoms=    5 NActive=    5 NUniq=    3 SFac= 2.78D+00 NAtFMM=   60 NAOKFM=F Big=F
 Integral buffers will be    131072 words long.
 Regular integral format.
 Two-electron integral symmetry is turned on.
 R6Disp:  Grimme-D3(BJ) Dispersion energy=       -0.0056110349 Hartrees.
 Nuclear repulsion after empirical dispersion term =      518.9885470831 Hartrees.
 Leave Link  301 at Fri Jun 24 11:48:08 2022, MaxMem=  1048576000 cpu:               0.3 elap:               0.2
 (Enter /home/pcmt/gaussian/g16.C.01/g16/l302.exe)
 NPDir=0 NMtPBC=     1 NCelOv=     1 NCel=       1 NClECP=     1 NCelD=      1
         NCelK=      1 NCelE2=     1 NClLst=     1 CellRange=     0.0.
 One-electron integrals computed using PRISM.
 One-electron integral symmetry used in STVInt
   4 Symmetry operations used in ECPInt.
 ECPInt:  NShTT=    3160 NPrTT=   10748 LenC2=    3027 LenP2D=    7885.
 LDataN:  DoStor=T MaxTD1= 9 Len=  602
 NBasis=   253 RedAO= T EigKep=  9.40D-04  NBF=    92    37    63    61
 NBsUse=   253 1.00D-06 EigRej= -1.00D+00 NBFU=    92    37    63    61
 Precomputing XC quadrature grid using
 IXCGrd= 4 IRadAn=           5 IRanWt=          -1 IRanGd=           0 AccXCQ= 0.00D+00.
 Defaulting to unpruned grid for atomic number  92.
 Generated NRdTot=       0 NPtTot=           0 NUsed=           0 NTot=          32
 NSgBfM=   303   303   303   303   303 MxSgAt=     5 MxSgA2=     5.
 Leave Link  302 at Fri Jun 24 11:48:09 2022, MaxMem=  1048576000 cpu:               3.9 elap:               1.5
 (Enter /home/pcmt/gaussian/g16.C.01/g16/l303.exe)
 DipDrv:  MaxL=1.
 Leave Link  303 at Fri Jun 24 11:48:09 2022, MaxMem=  1048576000 cpu:               0.2 elap:               0.1
 (Enter /home/pcmt/gaussian/g16.C.01/g16/l308.exe)
 Leave Link  308 at Fri Jun 24 11:48:10 2022, MaxMem=  1048576000 cpu:               0.4 elap:               0.2
 (Enter /home/pcmt/gaussian/g16.C.01/g16/l401.exe)
 Initial guess from the checkpoint file:  "tddft-s3-uo2_cl2.pbe0-d3.freq.chk"
 B after Tr=     0.000000    0.000000    0.000000
         Rot=    1.000000   -0.000000   -0.000000   -0.000000 Ang=   0.00 deg.
 Guess basis will be translated and rotated to current coordinates.
 JPrj=2 DoOrth=T DoCkMO=T.
 Initial guess orbital symmetries:
       Occupied  (A1) (B1) (B2) (A1) (A1) (A1) (B1) (A1) (B1) (B2)
                 (B1) (A1) (B1) (A1) (B2) (A2) (A1) (B1) (B2) (A2)
                 (A1) (A1) (B2) (A1) (B1) (A1) (A1) (B1) (B2) (B2)
                 (A2) (A1) (B1) (A1) (B2) (A1) (B1) (A1) (B1) (A2)
                 (B2)
       Virtual   (A1) (B1) (B2) (A2) (A1) (B1) (A1) (A1) (B1) (B2)
                 (A1) (B2) (B1) (A1) (A2) (B2) (B2) (A1) (B1) (A1)
                 (A2) (B1) (A1) (B2) (A1) (B2) (B1) (A1) (A2) (B1)
                 (A1) (B2) (A2) (B1) (A1) (B2) (A2) (B1) (A1) (B1)
                 (A1) (B2) (A1) (B2) (A1) (B1) (A2) (A1) (B2) (B1)
                 (B1) (A1) (A2) (B2) (A1) (B2) (A1) (B1) (A1) (A1)
                 (B1) (B1) (A2) (A1) (B2) (B2) (A1) (B1) (A1) (B1)
                 (B2) (A2) (B2) (A2) (A1) (A1) (A2) (A2) (B2) (B1)
                 (B2) (A1) (B1) (B1) (A1) (B2) (A1) (B2) (B1) (A2)
                 (B1) (A1) (A2) (B2) (A1) (B1) (A2) (B2) (B1) (A1)
                 (B1) (B2) (A1) (A2) (A1) (B1) (B2) (A1) (B2) (A1)
                 (B1) (A2) (A1) (B1) (A2) (A1) (B2) (B1) (B2) (A2)
                 (A1) (B1) (A1) (B2) (A2) (A1) (A1) (B1) (B2) (A1)
                 (B2) (B2) (B2) (A2) (B1) (A1) (A1) (B1) (A1) (B1)
                 (A2) (A2) (B2) (B1) (A1) (A1) (B2) (A2) (B2) (A1)
                 (B2) (B1) (A1) (B1) (A1) (A2) (B1) (B2) (A1) (A2)
                 (B1) (B2) (A1) (A2) (A1) (B1) (B2) (B2) (A1) (B1)
                 (A1) (B2) (A2) (A1) (B2) (A1) (A2) (B2) (B1) (A1)
                 (A1) (A2) (B1) (B2) (A1) (B1) (A2) (B2) (B1) (A1)
                 (A1) (B1) (A2) (B2) (A1) (A1) (B1) (B2) (B1) (A1)
                 (A1) (A1) (B2) (A1) (B1) (B2) (A1) (A1) (B1) (B2)
                 (A1) (A1)
 The electronic state of the initial guess is 1-A1.
 Leave Link  401 at Fri Jun 24 11:48:10 2022, MaxMem=  1048576000 cpu:               1.1 elap:               0.5
 (Enter /home/pcmt/gaussian/g16.C.01/g16/l502.exe)
 Keep R1 ints in memory in symmetry-blocked form, NReq=646035938.
 FoFCou: FMM=F IPFlag=           0 FMFlag=           0 FMFlg1=           0
         NFxFlg=           0 DoJE=F BraDBF=F KetDBF=F FulRan=T
         wScrn=  0.000000 ICntrl=       600 IOpCl=  0 I1Cent=           0 NGrid=           0
         NMat0=    1 NMatS0=  32131 NMatT0=    0 NMatD0=    1 NMtDS0=    0 NMtDT0=    0
 Petite list used in FoFCou.
 Closed shell SCF:
 Using DIIS extrapolation, IDIIS=  1040.
 NGot=  1048576000 LenX=   918564064 LenY=   918468759
 Requested convergence on RMS density matrix=1.00D-08 within 100 cycles.
 Requested convergence on MAX density matrix=1.00D-06.
 Requested convergence on             energy=1.00D-06.
 No special actions if energy rises.

 Cycle   1  Pass 1  IDiag  1:
 Defaulting to unpruned grid for atomic number  92.
 Defaulting to unpruned grid for atomic number  92.
 Defaulting to unpruned grid for atomic number  92.
 Defaulting to unpruned grid for atomic number  92.
 E= -1547.64304984774    
 DIIS: error= 2.04D-08 at cycle   1 NSaved=   1.
 NSaved= 1 IEnMin= 1 EnMin= -1547.64304984774     IErMin= 1 ErrMin= 2.04D-08
 ErrMax= 2.04D-08  0.00D+00 EMaxC= 1.00D-01 BMatC= 1.23D-13 BMatP= 1.23D-13
 IDIUse=1 WtCom= 1.00D+00 WtEn= 0.00D+00
 Coeff-Com:  0.100D+01
 Coeff:      0.100D+01
 Gap=     0.162 Goal=   None    Shift=    0.000
 RMSDP=2.25D-09 MaxDP=7.36D-08              OVMax= 2.79D-07

 SCF Done:  E(RPBE1PBE) =  -1547.64304985     A.U. after    1 cycles
            NFock=  1  Conv=0.22D-08     -V/T= 2.2703
 KE= 1.218310992032D+03 PE=-4.551800198332D+03 EE= 1.266857609370D+03
 Leave Link  502 at Fri Jun 24 11:51:06 2022, MaxMem=  1048576000 cpu:             630.8 elap:             175.6
 (Enter /home/pcmt/gaussian/g16.C.01/g16/l801.exe)
 DoSCS=F DFT=T ScalE2(SS,OS)=  1.000000  1.000000
 Range of M.O.s used for correlation:    22   253
 NBasis=   253 NAE=    41 NBE=    41 NFC=    21 NFV=     0
 NROrb=    232 NOA=    20 NOB=    20 NVA=   212 NVB=   212

 **** Warning!!: The largest alpha MO coefficient is  0.10228143D+02

 Leave Link  801 at Fri Jun 24 11:51:06 2022, MaxMem=  1048576000 cpu:               0.1 elap:               0.1
 (Enter /home/pcmt/gaussian/g16.C.01/g16/l914.exe)
 RHF ground state
 Keep R1, R2, and R3 ints in memory in symmetry-blocked form, NReq=646036278.
 FoFCou: FMM=F IPFlag=           0 FMFlag=           0 FMFlg1=           0
         NFxFlg=           0 DoJE=F BraDBF=F KetDBF=F FulRan=T
         wScrn=  0.000000 ICntrl=       600 IOpCl=  0 I1Cent=           0 NGrid=           0
         NMat0=    1 NMatS0=  32131 NMatT0=    0 NMatD0=    1 NMtDS0=    0 NMtDT0=    0
 Petite list used in FoFCou.
 MDV=  1048576000 DFT=T DoStab=F Mixed=T DoRPA=T DoScal=F NonHer=T
 Making orbital integer symmetry assigments:
 Orbital symmetries:
       Occupied  (A1) (B1) (B2) (A1) (A1) (A1) (B1) (A1) (B1) (B2)
                 (B1) (A1) (B1) (A1) (B2) (A2) (A1) (B1) (B2) (A2)
                 (A1) (A1) (B2) (A1) (B1) (A1) (A1) (B1) (B2) (B2)
                 (A2) (A1) (B1) (A1) (B2) (A1) (B1) (A1) (B1) (A2)
                 (B2)
       Virtual   (A1) (B1) (B2) (A2) (A1) (B1) (A1) (A1) (B1) (B2)
                 (A1) (B2) (B1) (A1) (A2) (B2) (B2) (A1) (B1) (A1)
                 (A2) (B1) (A1) (B2) (A1) (B2) (B1) (A1) (A2) (B1)
                 (A1) (B2) (A2) (B1) (A1) (B2) (A2) (B1) (A1) (B1)
                 (A1) (B2) (A1) (B2) (A1) (B1) (A2) (A1) (B2) (B1)
                 (B1) (A1) (A2) (B2) (A1) (B2) (A1) (B1) (A1) (A1)
                 (B1) (B1) (A2) (A1) (B2) (B2) (A1) (B1) (A1) (B1)
                 (B2) (A2) (B2) (A2) (A1) (A1) (A2) (A2) (B2) (B1)
                 (B2) (A1) (B1) (B1) (A1) (B2) (A1) (B2) (B1) (A2)
                 (B1) (A1) (A2) (B2) (A1) (B1) (A2) (B2) (B1) (A1)
                 (B1) (B2) (A1) (A2) (A1) (B1) (B2) (A1) (B2) (A1)
                 (B1) (A2) (A1) (B1) (A2) (A1) (B2) (B1) (B2) (A2)
                 (A1) (B1) (A1) (B2) (A2) (A1) (A1) (B1) (B2) (A1)
                 (B2) (B2) (B2) (A2) (B1) (A1) (A1) (B1) (A1) (B1)
                 (A2) (A2) (B2) (B1) (A1) (A1) (B2) (A2) (B2) (A1)
                 (B2) (B1) (A1) (B1) (A1) (A2) (B1) (B2) (A1) (A2)
                 (B1) (B2) (A1) (A2) (A1) (B1) (B2) (B2) (A1) (B1)
                 (A1) (B2) (A2) (A1) (B2) (A1) (A2) (B2) (B1) (A1)
                 (A1) (A2) (B1) (B2) (A1) (B1) (A2) (B2) (B1) (A1)
                 (A1) (B1) (A2) (B2) (A1) (A1) (B1) (B2) (B1) (A1)
                 (A1) (A1) (B2) (A1) (B1) (B2) (A1) (A1) (B1) (B2)
                 (A1) (A1)
    16 initial guesses have been made.
 Convergence on wavefunction:    0.000001000000000
 Davidson Disk Diagonalization:  ConvIn= 1.00D-06 SkipCon=T Conv= 1.00D-06.
 Max sub-space:  2000 roots to seek:    16 dimension of matrix:         8480
 Iteration     1 Dimension    16 NMult     0 NNew     16
 CISAX will form    16 AO SS matrices at one time.
 NMat=    16 NSing=     0 JSym2X=-1.
 Defaulting to unpruned grid for atomic number  92.
 Defaulting to unpruned grid for atomic number  92.
 Defaulting to unpruned grid for atomic number  92.
 Defaulting to unpruned grid for atomic number  92.
 New state      1 was old state      2
 New state      2 was old state      1
 New state      3 was old state      4
 New state      4 was old state      3
 Excitation Energies [eV] at current iteration:
 Root      1 :     2.692395476488428
 Root      2 :     2.702513177432311
 Root      3 :     2.809427287790584
 Root      4 :     2.815024905627251
 Root      5 :     3.210587957929183
 Root      6 :     3.238400493236455
 Root      7 :     3.260077779143687
 Root      8 :     3.273709803817141
 Root      9 :     3.356315951303662
 Root     10 :     3.410180449283013
 Root     11 :     3.469236871275794
 Root     12 :     3.476721329502463
 Root     13 :     3.583478587710423
 Root     14 :     3.606672648139643
 Root     15 :     3.782668305604793
 Root     16 :     3.814118652875653
 Iteration     2 Dimension    24 NMult    16 NNew      8
 CISAX will form     8 AO SS matrices at one time.
 NMat=     8 NSing=     0 JSym2X=-1.
 New state      1 was old state      4
 Root      1 not converged, maximum delta is    0.482190982486786
 Root      2 not converged, maximum delta is    0.376368596718389
 New state      3 was old state      1
 Root      3 not converged, maximum delta is    0.354374131810307
 New state      4 was old state      3
 Root      4 not converged, maximum delta is    0.416326161984654
 Excitation Energies [eV] at current iteration:
 Root      1 :     2.137769060924965   Change is   -0.677255844702287
 Root      2 :     2.232444308943867   Change is   -0.470068868488444
 Root      3 :     2.243999099712152   Change is   -0.448396376776276
 Root      4 :     2.258667051650101   Change is   -0.550760236140483
 Iteration     3 Dimension    32 NMult    24 NNew      8
 CISAX will form     8 AO SS matrices at one time.
 NMat=     8 NSing=     0 JSym2X=-1.
 Root      1 not converged, maximum delta is    0.018627080894452
 Root      2 not converged, maximum delta is    0.037480636684939
 Root      3 not converged, maximum delta is    0.049166088970521
 Root      4 not converged, maximum delta is    0.038422439263704
 Excitation Energies [eV] at current iteration:
 Root      1 :     2.113449135097834   Change is   -0.024319925827131
 Root      2 :     2.197589578661122   Change is   -0.034854730282745
 Root      3 :     2.202584427085770   Change is   -0.041414672626383
 Root      4 :     2.216795720853097   Change is   -0.041871330797004
 Iteration     4 Dimension    40 NMult    32 NNew      8
 CISAX will form     8 AO SS matrices at one time.
 NMat=     8 NSing=     0 JSym2X=-1.
 Root      1 not converged, maximum delta is    0.005260576983617
 Root      2 not converged, maximum delta is    0.003488097733309
 Root      3 not converged, maximum delta is    0.005850475113110
 Root      4 not converged, maximum delta is    0.006990633554629
 Excitation Energies [eV] at current iteration:
 Root      1 :     2.112633397433751   Change is   -0.000815737664083
 Root      2 :     2.196629983318115   Change is   -0.000959595343007
 Root      3 :     2.201246574093759   Change is   -0.001337852992010
 Root      4 :     2.215451435906637   Change is   -0.001344284946461
 Iteration     5 Dimension    48 NMult    40 NNew      8
 CISAX will form     8 AO SS matrices at one time.
 NMat=     8 NSing=     0 JSym2X=-1.
 Root      1 not converged, maximum delta is    0.001017690084673
 Root      2 not converged, maximum delta is    0.001262635807154
 Root      3 not converged, maximum delta is    0.001075981178306
 Root      4 not converged, maximum delta is    0.002093700692609
 Excitation Energies [eV] at current iteration:
 Root      1 :     2.112582182437321   Change is   -0.000051214996430
 Root      2 :     2.196588548210960   Change is   -0.000041435107155
 Root      3 :     2.201198870702478   Change is   -0.000047703391281
 Root      4 :     2.215357756086997   Change is   -0.000093679819640
 Iteration     6 Dimension    56 NMult    48 NNew      8
 CISAX will form     8 AO SS matrices at one time.
 NMat=     8 NSing=     0 JSym2X=-1.
 Root      1 not converged, maximum delta is    0.000534264594437
 Root      2 not converged, maximum delta is    0.000758832611009
 Root      3 not converged, maximum delta is    0.000240861167087
 Root      4 not converged, maximum delta is    0.000782211076829
 Excitation Energies [eV] at current iteration:
 Root      1 :     2.112578218741682   Change is   -0.000003963695639
 Root      2 :     2.196582869289335   Change is   -0.000005678921625
 Root      3 :     2.201196871865580   Change is   -0.000001998836898
 Root      4 :     2.215350599890169   Change is   -0.000007156196827
 Iteration     7 Dimension    64 NMult    56 NNew      8
 CISAX will form     8 AO SS matrices at one time.
 NMat=     8 NSing=     0 JSym2X=-1.
 Root      1 not converged, maximum delta is    0.000061913412537
 Root      2 not converged, maximum delta is    0.000125169732969
 Root      3 not converged, maximum delta is    0.000065610554364
 Root      4 not converged, maximum delta is    0.000052810768063
 Excitation Energies [eV] at current iteration:
 Root      1 :     2.112578030315754   Change is   -0.000000188425928
 Root      2 :     2.196582436038832   Change is   -0.000000433250503
 Root      3 :     2.201196789210532   Change is   -0.000000082655048
 Root      4 :     2.215350350938249   Change is   -0.000000248951920
 Iteration     8 Dimension    72 NMult    64 NNew      8
 CISAX will form     8 AO SS matrices at one time.
 NMat=     8 NSing=     0 JSym2X=-1.
 Root      1 not converged, maximum delta is    0.000021207182885
 Root      2 not converged, maximum delta is    0.000018815332485
 Root      3 not converged, maximum delta is    0.000030305885658
 Root      4 not converged, maximum delta is    0.000009548151937
 Excitation Energies [eV] at current iteration:
 Root      1 :     2.112578018175914   Change is   -0.000000012139841
 Root      2 :     2.196582408228435   Change is   -0.000000027810397
 Root      3 :     2.201196778822799   Change is   -0.000000010387733
 Root      4 :     2.215350340875748   Change is   -0.000000010062501
 Iteration     9 Dimension    80 NMult    72 NNew      8
 CISAX will form     8 AO SS matrices at one time.
 NMat=     8 NSing=     0 JSym2X=-1.
 Root      1 not converged, maximum delta is    0.000002229519795
 Root      2 not converged, maximum delta is    0.000004171529694
 Root      3 not converged, maximum delta is    0.000006049654054
 Root      4 not converged, maximum delta is    0.000001615498685
 Excitation Energies [eV] at current iteration:
 Root      1 :     2.112578017558358   Change is   -0.000000000617555
 Root      2 :     2.196582407165073   Change is   -0.000000001063362
 Root      3 :     2.201196777954412   Change is   -0.000000000868386
 Root      4 :     2.215350340527266   Change is   -0.000000000348482
 Iteration    10 Dimension    88 NMult    80 NNew      8
 CISAX will form     8 AO SS matrices at one time.
 NMat=     8 NSing=     0 JSym2X=-1.
 Root      1 has converged.
 Root      2 has converged.
 Root      3 has converged.
 Root      4 has converged.
 Excitation Energies [eV] at current iteration:
 Root      1 :     2.112578017532831   Change is   -0.000000000025527
 Root      2 :     2.196582407120911   Change is   -0.000000000044162
 Root      3 :     2.201196777920614   Change is   -0.000000000033799
 Root      4 :     2.215350340517914   Change is   -0.000000000009351
 Convergence achieved on expansion vectors.
 ***********************************************************************
 Excited states from <AA,BB:AA,BB> singles matrix:
 ***********************************************************************
 
 1PDM for each excited state written to RWF  633
 Ground to excited state transition densities written to RWF  633
 Ground to excited state transition electric dipole moments (Au):
       state          X           Y           Z        Dip. S.      Osc.
         1         0.0000     -0.0000     -0.0000      0.0000      0.0000
         2        -0.0000      0.0000     -0.0000      0.0000      0.0000
         3        -0.0000      0.0000     -0.0000      0.0000      0.0000
         4         0.0000     -0.0000     -0.0000      0.0000      0.0000
 Ground to excited state transition velocity dipole moments (Au):
       state          X           Y           Z        Dip. S.      Osc.
         1        -0.0000     -0.0000     -0.0000      0.0000      0.0000
         2         0.0000     -0.0000      0.0000      0.0000      0.0000
         3         0.0000     -0.0000     -0.0000      0.0000      0.0000
         4         0.0000      0.0000      0.0000      0.0000      0.0000
 Ground to excited state transition magnetic dipole moments (Au):
       state          X           Y           Z
         1        -0.0000     -0.0000      0.0000
         2        -0.0000      0.0000      0.0000
         3         0.0000      0.0000      0.0000
         4         0.0000      0.0000      0.0000
 Ground to excited state transition velocity quadrupole moments (Au):
       state          XX          YY          ZZ          XY          XZ          YZ
         1         0.0000      0.0000      0.0000     -0.0000      0.0000     -0.0000
         2         0.0000      0.0000      0.0000      0.0000     -0.0000      0.0000
         3        -0.0000     -0.0000     -0.0000     -0.0000     -0.0000     -0.0000
         4        -0.0000     -0.0000      0.0000      0.0000     -0.0000      0.0000
 <0|del|b> * <b|rxdel|0> + <0|del|b> * <b|delr+rdel|0>
 Rotatory Strengths (R) in cgs (10**-40 erg-esu-cm/Gauss)
       state          XX          YY          ZZ    R(velocity)    E-M Angle
         1         0.0000      0.0000     -0.0000      0.0000       90.00
         2         0.0000      0.0000      0.0000      0.0000       90.00
         3        -0.0000     -0.0000      0.0000      0.0000       90.00
         4         0.0000      0.0000      0.0000      0.0000       90.00
 1/2[<0|r|b>*<b|rxdel|0> + (<0|rxdel|b>*<b|r|0>)*]
 Rotatory Strengths (R) in cgs (10**-40 erg-esu-cm/Gauss)
       state          XX          YY          ZZ     R(length)
         1         0.0000     -0.0000      0.0000      0.0000
         2        -0.0000     -0.0000      0.0000      0.0000
         3         0.0000     -0.0000      0.0000      0.0000
         4        -0.0000      0.0000      0.0000      0.0000
  1/2[<0|del|b>*<b|r|0> + (<0|r|b>*<b|del|0>)*] (Au)
       state          X           Y           Z        Dip. S.   Osc.(frdel)
         1        -0.0000      0.0000      0.0000     -0.0000     -0.0000
         2        -0.0000     -0.0000     -0.0000      0.0000      0.0000
         3        -0.0000     -0.0000      0.0000     -0.0000     -0.0000
         4         0.0000     -0.0000     -0.0000     -0.0000     -0.0000

 Excitation energies and oscillator strengths:
 
 Excited State   1:      Triplet-A1     2.1126 eV  586.89 nm  f=0.0000  <S**2>=2.000
      35 -> 44        -0.42810
      41 -> 44         0.56397
 
 Excited State   2:      Triplet-B2     2.1966 eV  564.44 nm  f=0.0000  <S**2>=2.000
      35 -> 42        -0.37414
      41 -> 42         0.59619
 
 Excited State   3:      Triplet-A2     2.2012 eV  563.26 nm  f=0.0000  <S**2>=2.000
      35 -> 43        -0.36589
      41 -> 43         0.60149
 This state for optimization and/or second-order correction.
 Total Energy, E(TD-HF/TD-DFT) =  -1547.56215735    
 Copying the excited state density for this state as the 1-particle RhoCI density.
 
 Excited State   4:      Triplet-B1     2.2154 eV  559.66 nm  f=0.0000  <S**2>=2.000
      35 -> 45        -0.39345
      41 -> 45         0.58754
 SavETr:  write IOETrn=   770 NScale= 10 NData=  16 NLR=1 NState=    4 LETran=      82.
 The selected state is a triplet.
 CISGrd: IGrad=3 NXY=2 DFT=T
 CISAX will form     1 AO SS matrices at one time.
 NMat=     1 NSing=     0 JSym2X=-1.
 Leave Link  914 at Fri Jun 24 11:56:16 2022, MaxMem=  1048576000 cpu:            1197.2 elap:             309.7
 (Enter /home/pcmt/gaussian/g16.C.01/g16/l1002.exe)
 Minotr:  Closed shell wavefunction.
          Computing CIS/TDA/TD derivatives.
          Using Z-Vector for PSCF gradient.
          Skipping F1 and S1 gradient terms here.
          IDoAtm=11111
          Frozen-core window.
          Direct CPHF calculation.
          Differentiating once with respect to electric field.
                with respect to dipole field.
          Differentiating once with respect to nuclear coordinates.
          Requested convergence is 1.0D-10 RMS, and 1.0D-09 maximum.
          NewPWx=F KeepS1=T KeepF1=T KeepIn=T MapXYZ=F SortEE=F KeepMc=T.
 Keep R1 ints in memory in symmetry-blocked form, NReq=646037315.
 FoFCou: FMM=F IPFlag=           0 FMFlag=           0 FMFlg1=           0
         NFxFlg=           0 DoJE=F BraDBF=F KetDBF=F FulRan=T
         wScrn=  0.000000 ICntrl=       600 IOpCl=  0 I1Cent=           0 NGrid=           0
         NMat0=    1 NMatS0=  32131 NMatT0=    0 NMatD0=    1 NMtDS0=    0 NMtDT0=    0
 Petite list used in FoFCou.
 Two-electron integral symmetry used by symmetrizing perturbed Fock matrices.
          MDV=    1048576000 using IRadAn=       5.
          Solving linear equations separately, MaxMat=       0.
          There are     1 degrees of freedom in the 1st order CPHF.  IDoFFX=0 NUNeed=     1.
 Defaulting to unpruned grid for atomic number  92.
 Defaulting to unpruned grid for atomic number  92.
 Defaulting to unpruned grid for atomic number  92.
 Defaulting to unpruned grid for atomic number  92.
 LinEq1:  Iter=  0 NonCon=     1 RMS=2.86D-02 Max=1.13D+00 NDo=     1
 AX will form     1 AO Fock derivatives at one time.
 LinEq1:  Iter=  1 NonCon=     1 RMS=1.81D-02 Max=6.51D-01 NDo=     1
 LinEq1:  Iter=  2 NonCon=     1 RMS=1.43D-02 Max=4.64D-01 NDo=     1
 LinEq1:  Iter=  3 NonCon=     1 RMS=6.13D-03 Max=2.23D-01 NDo=     1
 LinEq1:  Iter=  4 NonCon=     1 RMS=2.47D-03 Max=6.97D-02 NDo=     1
 LinEq1:  Iter=  5 NonCon=     1 RMS=1.26D-03 Max=4.20D-02 NDo=     1
 LinEq1:  Iter=  6 NonCon=     1 RMS=4.84D-04 Max=1.42D-02 NDo=     1
 LinEq1:  Iter=  7 NonCon=     1 RMS=1.55D-04 Max=3.11D-03 NDo=     1
 LinEq1:  Iter=  8 NonCon=     1 RMS=5.10D-05 Max=1.59D-03 NDo=     1
 LinEq1:  Iter=  9 NonCon=     1 RMS=1.27D-05 Max=4.27D-04 NDo=     1
 LinEq1:  Iter= 10 NonCon=     1 RMS=4.79D-06 Max=1.00D-04 NDo=     1
 LinEq1:  Iter= 11 NonCon=     1 RMS=1.40D-06 Max=4.15D-05 NDo=     1
 LinEq1:  Iter= 12 NonCon=     1 RMS=3.85D-07 Max=1.08D-05 NDo=     1
 LinEq1:  Iter= 13 NonCon=     1 RMS=1.23D-07 Max=5.21D-06 NDo=     1
 LinEq1:  Iter= 14 NonCon=     1 RMS=2.69D-08 Max=7.25D-07 NDo=     1
 LinEq1:  Iter= 15 NonCon=     1 RMS=7.15D-09 Max=2.15D-07 NDo=     1
 LinEq1:  Iter= 16 NonCon=     1 RMS=2.70D-09 Max=5.59D-08 NDo=     1
 LinEq1:  Iter= 17 NonCon=     1 RMS=6.73D-10 Max=1.75D-08 NDo=     1
 LinEq1:  Iter= 18 NonCon=     1 RMS=1.58D-10 Max=4.51D-09 NDo=     1
 LinEq1:  Iter= 19 NonCon=     0 RMS=3.65D-11 Max=9.41D-10 NDo=     1
 Linear equations converged to 1.000D-10 1.000D-09 after    19 iterations.
          There are     1 degrees of freedom in the 1st order CPHF.  IDoFFX=0 NUNeed=     1.
 End of Minotr F.D. properties file   721 does not exist.
 End of Minotr F.D. properties file   722 does not exist.
 End of Minotr F.D. properties file   788 does not exist.
 Leave Link 1002 at Fri Jun 24 11:59:13 2022, MaxMem=  1048576000 cpu:             691.9 elap:             177.2
 (Enter /home/pcmt/gaussian/g16.C.01/g16/l1101.exe)
 Using compressed Sx but separate Hx and Fx, NAtomX=     5.
 Will process      6 centers per pass.
   4 Symmetry operations used in ECPInt.
 ECPInt:  NShTT=    3160 NPrTT=   10748 LenC2=    3027 LenP2D=    7885.
 LDataN:  DoStor=T MaxTD1=10 Len=  848
 Leave Link 1101 at Fri Jun 24 11:59:20 2022, MaxMem=  1048576000 cpu:              12.1 elap:               7.2
 (Enter /home/pcmt/gaussian/g16.C.01/g16/l1102.exe)
 Use density number 6.
 Symmetrizing basis deriv contribution to polar:
 IMax=3 JMax=2 DiffMx= 0.00D+00
 Leave Link 1102 at Fri Jun 24 11:59:20 2022, MaxMem=  1048576000 cpu:               0.2 elap:               0.1
 (Enter /home/pcmt/gaussian/g16.C.01/g16/l1110.exe)
 Forming Gx(P) for the SCF density, NAtomX=     5.
 Integral derivatives from FoFJK, PRISM(SPDF).
 Do as many integral derivatives as possible in FoFJK.
 G2DrvN: MDV=    1048575349.
 G2DrvN: will do     6 centers at a time, making    1 passes.
 Calling FoFCou, ICntrl=  3107 FMM=F I1Cent=   0 AccDes= 0.00D+00.
 FoFJK:  IHMeth= 1 ICntrl=    3107 DoSepK=F KAlg= 0 I1Cent=           0 FoldK=F
 IRaf=         0 NMat=       1 IRICut=       1 DoRegI=T DoRafI=F ISym2E= 1 IDoP0=0 IntGTp=1.
 FoFCou: FMM=F IPFlag=           0 FMFlag=      100000 FMFlg1=           0
         NFxFlg=           0 DoJE=F BraDBF=F KetDBF=F FulRan=T
         wScrn=  0.000000 ICntrl=      3107 IOpCl=  0 I1Cent=           0 NGrid=           0
         NMat0=    1 NMatS0=      1 NMatT0=    0 NMatD0=    1 NMtDS0=    0 NMtDT0=    0
 Petite list used in FoFCou.
 Defaulting to unpruned grid for atomic number  92.
 Defaulting to unpruned grid for atomic number  92.
 Defaulting to unpruned grid for atomic number  92.
 Defaulting to unpruned grid for atomic number  92.
 Forming Gx(P) for generalized density number  6 NAtomX=     5.
 Integral derivatives from FoFJK, PRISM(SPDF).
 Do as many integral derivatives as possible in FoFJK.
 G2DrvN: MDV=    1048575349.
 G2DrvN: will do     6 centers at a time, making    1 passes.
 Calling FoFCou, ICntrl=  3107 FMM=F I1Cent=   0 AccDes= 0.00D+00.
 Forming Gx(T) for CIS/TDA/TD state  3 NAtomX=     5.
 Integral derivatives from FoFJK, PRISM(SPDF).
 Do as many integral derivatives as possible in FoFJK.
 G2DrvN: MDV=    1048575349.
 G2DrvN: will do     6 centers at a time, making    1 passes.
 Calling FoFCou, ICntrl=  3107 FMM=F I1Cent=   0 AccDes= 0.00D+00.
 End of G2Drv F.D. properties file   721 does not exist.
 End of G2Drv F.D. properties file   722 does not exist.
 End of G2Drv F.D. properties file   788 does not exist.
 Leave Link 1110 at Fri Jun 24 12:03:21 2022, MaxMem=  1048576000 cpu:             961.5 elap:             240.9
 (Enter /home/pcmt/gaussian/g16.C.01/g16/l1002.exe)
 Minotr:  Closed shell wavefunction.
          IDoAtm=11111
          Frozen-core window.
          Direct CPHF calculation.
          Differentiating once with respect to electric field.
                with respect to dipole field.
          Differentiating once with respect to nuclear coordinates.
          Requested convergence is 1.0D-08 RMS, and 1.0D-07 maximum.
          Secondary convergence is 1.0D-12 RMS, and 1.0D-12 maximum.
          NewPWx=T KeepS1=T KeepF1=T KeepIn=T MapXYZ=F SortEE=F KeepMc=T.
 Defaulting to unpruned grid for atomic number  92.
         1512 words used for storage of precomputed grid.
 Keep R1 ints in memory in symmetry-blocked form, NReq=646038827.
 FoFCou: FMM=F IPFlag=           0 FMFlag=           0 FMFlg1=           0
         NFxFlg=           0 DoJE=F BraDBF=F KetDBF=F FulRan=T
         wScrn=  0.000000 ICntrl=       600 IOpCl=  0 I1Cent=           0 NGrid=           0
         NMat0=    1 NMatS0=  32131 NMatT0=    0 NMatD0=    1 NMtDS0=    0 NMtDT0=    0
 Petite list used in FoFCou.
          MDV=    1048576000 using IRadAn=       1.
          Solving linear equations simultaneously, MaxMat=       0.
 Defaulting to unpruned grid for atomic number  92.
 Defaulting to unpruned grid for atomic number  92.
 Defaulting to unpruned grid for atomic number  92.
 Defaulting to unpruned grid for atomic number  92.
          There are    18 degrees of freedom in the 1st order CPHF.  IDoFFX=6 NUNeed=    18.
     15 vectors produced by pass  0 Test12= 4.83D-14 5.56D-09 XBig12= 9.97D+01 4.92D+00.
 AX will form    15 AO Fock derivatives at one time.
     15 vectors produced by pass  1 Test12= 4.83D-14 5.56D-09 XBig12= 4.44D+01 2.03D+00.
     15 vectors produced by pass  2 Test12= 4.83D-14 5.56D-09 XBig12= 6.70D+00 5.69D-01.
     15 vectors produced by pass  3 Test12= 4.83D-14 5.56D-09 XBig12= 3.69D-01 1.89D-01.
     15 vectors produced by pass  4 Test12= 4.83D-14 5.56D-09 XBig12= 1.15D-02 4.17D-02.
     15 vectors produced by pass  5 Test12= 4.83D-14 5.56D-09 XBig12= 6.67D-04 8.49D-03.
     15 vectors produced by pass  6 Test12= 4.83D-14 5.56D-09 XBig12= 1.21D-05 6.37D-04.
     15 vectors produced by pass  7 Test12= 4.83D-14 5.56D-09 XBig12= 1.60D-07 1.25D-04.
     13 vectors produced by pass  8 Test12= 4.83D-14 5.56D-09 XBig12= 2.34D-09 1.15D-05.
      8 vectors produced by pass  9 Test12= 4.83D-14 5.56D-09 XBig12= 2.71D-11 1.11D-06.
      3 vectors produced by pass 10 Test12= 4.83D-14 5.56D-09 XBig12= 4.73D-13 1.79D-07.
      2 vectors produced by pass 11 Test12= 4.83D-14 5.56D-09 XBig12= 4.95D-15 1.77D-08.
 InvSVY:  IOpt=1 It=  1 EMax= 1.11D-15
 Solved reduced A of dimension   146 with    15 vectors.
 FullF1:  Do perturbations      1 to      18.
 Isotropic polarizability for W=    0.000000       72.51 Bohr**3.
 Saving first derivative matrices.
 End of Minotr F.D. properties file   721 does not exist.
 End of Minotr F.D. properties file   722 does not exist.
 End of Minotr F.D. properties file   788 does not exist.
 Leave Link 1002 at Fri Jun 24 12:07:17 2022, MaxMem=  1048576000 cpu:             928.3 elap:             236.1
 (Enter /home/pcmt/gaussian/g16.C.01/g16/l1014.exe)
 Defaulting to unpruned grid for atomic number  92.
 This link is doing    18 degrees of freedom
 Form MO integral derivatives with frozen-active canonical formalism.
 CISSec: MDV=    1048573280
 Doing TD-HF/TD-DFT second derivatives, IDoFFX=6 IOneXC=4 IRadAn=         1.
 Frozen orbitals handled with amplitudes over full window.
 Frozen-core window:  NFC=  21 NFV=   0.
 Symmetry is being used.
 Keep R1, R2, and R3 ints in memory in symmetry-blocked form, NReq=646101548.
 FoFCou: FMM=F IPFlag=           0 FMFlag=           0 FMFlg1=           0
         NFxFlg=           0 DoJE=F BraDBF=F KetDBF=F FulRan=T
         wScrn=  0.000000 ICntrl=       600 IOpCl=  0 I1Cent=           0 NGrid=           0
         NMat0=    1 NMatS0=  32131 NMatT0=    0 NMatD0=    1 NMtDS0=    0 NMtDT0=    0
 Petite list used in FoFCou.
 The selected state is a triplet.
 CISGrX: IGrad=3 NXY=2 DFT=T
 CISAX will form    18 AO SS matrices at one time.
 Defaulting to unpruned grid for atomic number  92.
 Defaulting to unpruned grid for atomic number  92.
 Defaulting to unpruned grid for atomic number  92.
 Defaulting to unpruned grid for atomic number  92.
 NMat=    18 NSing=     0 JSym2X= 2.
     15 vectors produced by pass  0 Test12= 4.71D-14 5.56D-09 XBig12= 6.85D+01 8.11D+00.
 AX will form    15 AO Fock derivatives at one time.
     15 vectors produced by pass  1 Test12= 4.71D-14 5.56D-09 XBig12= 2.77D+01 3.71D+00.
     15 vectors produced by pass  2 Test12= 4.71D-14 5.56D-09 XBig12= 1.67D+00 5.22D-01.
     15 vectors produced by pass  3 Test12= 4.71D-14 5.56D-09 XBig12= 3.39D-02 8.35D-02.
     15 vectors produced by pass  4 Test12= 4.71D-14 5.56D-09 XBig12= 5.16D-04 6.11D-03.
     15 vectors produced by pass  5 Test12= 4.71D-14 5.56D-09 XBig12= 1.14D-05 1.39D-03.
     15 vectors produced by pass  6 Test12= 4.71D-14 5.56D-09 XBig12= 1.92D-07 1.40D-04.
     15 vectors produced by pass  7 Test12= 4.71D-14 5.56D-09 XBig12= 2.91D-09 1.43D-05.
      7 vectors produced by pass  8 Test12= 4.71D-14 5.56D-09 XBig12= 3.02D-11 1.59D-06.
      3 vectors produced by pass  9 Test12= 4.71D-14 5.56D-09 XBig12= 1.93D-13 1.34D-07.
      1 vectors produced by pass 10 Test12= 4.71D-14 5.56D-09 XBig12= 1.06D-15 7.79D-09.
 InvSVY:  IOpt=1 It=  1 EMax= 1.55D-15
 Solved reduced A of dimension   131 with    15 vectors.
 Tx.T = -1.09D-05 for pert.     3
 Tx.T = -3.25D-07 for pert.    16
 Tx.T =  3.25D-07 for pert.    13
 Tx.T = -1.46D-07 for pert.    11
 Tx.T =  1.45D-07 for pert.     8
 Tx.T = -1.07D-07 for pert.     6
 Tx.T =  5.46D-08 for pert.    12
 Tx.T =  5.44D-08 for pert.     9
 Tx.T = -6.75D-09 for pert.     2
 Tx.T = -1.03D-09 for pert.    18
 SavDET:  read IOETrn=   770 NScale= 10 NData=  16 NLR=1 NState=    4 NDeriv=    0 LETran=      82.
 SavDET: write IOETrn=   770 NScale= 10 NData=  16 NLR=1 NState=    4 NDeriv=   18 LETran=     370.
 TDDxLx will form    18 C1x/S1x matrices at one time.
 Interchange theorem applied.
 R6Disp: Adding Grimme-D3(BJ) dispersion energy 1st derivatives to the gradient.
 FoFJK:  IHMeth= 1 ICntrl=    5100 DoSepK=F KAlg= 0 I1Cent=           0 FoldK=F
 IRaf=         0 NMat=       1 IRICut=       1 DoRegI=T DoRafI=F ISym2E= 0 IDoP0=0 IntGTp=1.
 Leave Link 1014 at Fri Jun 24 12:14:19 2022, MaxMem=  1048576000 cpu:            1680.4 elap:             421.4
 (Enter /home/pcmt/gaussian/g16.C.01/g16/l601.exe)
 Copying SCF densities to generalized density rwf, IOpCl= 0 IROHF=0.

 **********************************************************************

            Population analysis using the SCF Density.

 **********************************************************************

 Orbital symmetries:
       Occupied  (A1) (B1) (B2) (A1) (A1) (A1) (B1) (A1) (B1) (B2)
                 (B1) (A1) (B1) (A1) (B2) (A2) (A1) (B1) (B2) (A2)
                 (A1) (A1) (B2) (A1) (B1) (A1) (A1) (B1) (B2) (B2)
                 (A2) (A1) (B1) (A1) (B2) (A1) (B1) (A1) (B1) (A2)
                 (B2)
       Virtual   (A1) (B1) (B2) (A2) (A1) (B1) (A1) (A1) (B1) (B2)
                 (A1) (B2) (B1) (A1) (A2) (B2) (B2) (A1) (B1) (A1)
                 (A2) (B1) (A1) (B2) (A1) (B2) (B1) (A1) (A2) (B1)
                 (A1) (B2) (A2) (B1) (A1) (B2) (A2) (B1) (A1) (B1)
                 (A1) (B2) (A1) (B2) (A1) (B1) (A2) (A1) (B2) (B1)
                 (B1) (A1) (A2) (B2) (A1) (B2) (A1) (B1) (A1) (A1)
                 (B1) (B1) (A2) (A1) (B2) (B2) (A1) (B1) (A1) (B1)
                 (B2) (A2) (B2) (A2) (A1) (A1) (A2) (A2) (B2) (B1)
                 (B2) (A1) (B1) (B1) (A1) (B2) (A1) (B2) (B1) (A2)
                 (B1) (A1) (A2) (B2) (A1) (B1) (A2) (B2) (B1) (A1)
                 (B1) (B2) (A1) (A2) (A1) (B1) (B2) (A1) (B2) (A1)
                 (B1) (A2) (A1) (B1) (A2) (A1) (B2) (B1) (B2) (A2)
                 (A1) (B1) (A1) (B2) (A2) (A1) (A1) (B1) (B2) (A1)
                 (B2) (B2) (B2) (A2) (B1) (A1) (A1) (B1) (A1) (B1)
                 (A2) (A2) (B2) (B1) (A1) (A1) (B2) (A2) (B2) (A1)
                 (B2) (B1) (A1) (B1) (A1) (A2) (B1) (B2) (A1) (A2)
                 (B1) (B2) (A1) (A2) (A1) (B1) (B2) (B2) (A1) (B1)
                 (A1) (B2) (A2) (A1) (B2) (A1) (A2) (B2) (B1) (A1)
                 (A1) (A2) (B1) (B2) (A1) (B1) (A2) (B2) (B1) (A1)
                 (A1) (B1) (A2) (B2) (A1) (A1) (B1) (B2) (B1) (A1)
                 (A1) (A1) (B2) (A1) (B1) (B2) (A1) (A1) (B1) (B2)
                 (A1) (A1)
 The electronic state is 1-A1.
 Alpha  occ. eigenvalues -- -101.68765-101.68765 -19.27728 -19.27728 -12.17899
 Alpha  occ. eigenvalues --   -9.51443  -9.51443  -7.61672  -7.61476  -7.58272
 Alpha  occ. eigenvalues --   -7.24387  -7.24387  -7.24312  -7.24312  -7.24179
 Alpha  occ. eigenvalues --   -7.24179  -3.97969  -3.97925  -3.96583  -3.96470
 Alpha  occ. eigenvalues --   -3.95802  -1.98500  -1.24489  -1.05738  -1.02951
 Alpha  occ. eigenvalues --   -0.98537  -0.80795  -0.80181  -0.77305  -0.45629
 Alpha  occ. eigenvalues --   -0.45421  -0.44756  -0.43209  -0.42903  -0.39994
 Alpha  occ. eigenvalues --   -0.36971  -0.36135  -0.34882  -0.33601  -0.33597
 Alpha  occ. eigenvalues --   -0.31991
 Alpha virt. eigenvalues --   -0.15835  -0.15795  -0.15207  -0.15029  -0.11318
 Alpha virt. eigenvalues --   -0.10437  -0.05189  -0.02812  -0.01572   0.00857
 Alpha virt. eigenvalues --    0.03350   0.04020   0.05120   0.05874   0.07973
[...]
 Force constants in internal coordinates: 
                1             2             3             4             5 
      1  0.431198D+00
      2  0.332269D-01  0.431198D+00
      3  0.163039D-01  0.163039D-01  0.108937D+00
      4  0.163039D-01  0.163039D-01  0.346220D-02  0.108937D+00
      5 -0.568789D-02  0.117468D-02  0.227710D-03  0.137598D-03  0.181496D-01
      6 -0.109475D-01  0.455391D-02  0.475231D-03  0.591178D-03 -0.859122D-02
      7  0.117468D-02 -0.568789D-02  0.227709D-03  0.137599D-03  0.145555D-02
      8  0.455390D-02 -0.109475D-01  0.475232D-03  0.591177D-03  0.153640D-02
      9  0.414523D-03  0.414523D-03 -0.692347D-02 -0.695293D-02  0.112487D-02
     10 -0.451321D-02 -0.451321D-02  0.455419D-03  0.275197D-03  0.196051D-01
     11  0.766845D-02  0.766845D-02  0.604071D-03  0.416873D-03  0.205088D-02
     12 -0.862306D-02  0.242499D-02 -0.495582D-03 -0.563107D-03  0.167588D-01
     13 -0.242499D-02  0.862307D-02  0.495583D-03  0.563106D-03 -0.203677D-02
                6             7             8             9            10 
      6  0.482104D-01
      7  0.153640D-02  0.181496D-01
      8 -0.131300D-01 -0.859122D-02  0.482104D-01
      9 -0.666665D-02  0.112487D-02 -0.666665D-02  0.679838D-01
     10 -0.705482D-02  0.196051D-01 -0.705482D-02  0.224975D-02  0.392103D-01
     11 -0.329098D-01  0.205088D-02 -0.329098D-01 -0.349491D-02  0.410176D-02
     12  0.252752D-02  0.203677D-02 -0.256481D-02  0.783994D-02  0.187955D-01
     13  0.256481D-02 -0.167588D-01 -0.252752D-02 -0.783994D-02 -0.187955D-01
               11            12            13 
     11  0.680076D-01
     12 -0.666677D-02  0.189694D-01
     13  0.666677D-02 -0.242351D-02  0.189694D-01
 Leave Link  716 at Fri Jun 24 12:20:19 2022, MaxMem=  1048576000 cpu:               0.2 elap:               0.1
 (Enter /home/pcmt/gaussian/g16.C.01/g16/l103.exe)

 GradGradGradGradGradGradGradGradGradGradGradGradGradGradGradGradGradGrad
 Berny optimization.
 Red2BG is reusing G-inverse.
 Internal  Forces:  Max     0.002252086 RMS     0.000987274
 Search for a local minimum.
 Step number   1 out of a maximum of    2
 All quantities printed in internal units (Hartrees-Bohrs-Radians)
 Second derivative matrix not updated -- analytic derivatives used.
 The second derivative matrix:
                          R1        R2        R3        R4        A1
           R1           0.43120
           R2           0.03323   0.43120
           R3           0.01630   0.01630   0.10894
           R4           0.01630   0.01630   0.00346   0.10894
           A1          -0.00569   0.00117   0.00023   0.00014   0.01815
           A2          -0.01095   0.00455   0.00048   0.00059  -0.00859
           A3           0.00117  -0.00569   0.00023   0.00014   0.00146
           A4           0.00455  -0.01095   0.00048   0.00059   0.00154
           A5           0.00041   0.00041  -0.00692  -0.00695   0.00112
           A6          -0.00451  -0.00451   0.00046   0.00028   0.01961
           A7           0.00767   0.00767   0.00060   0.00042   0.00205
           D1          -0.00862   0.00242  -0.00050  -0.00056   0.01676
           D2          -0.00242   0.00862   0.00050   0.00056  -0.00204
                          A2        A3        A4        A5        A6
           A2           0.04821
           A3           0.00154   0.01815
           A4          -0.01313  -0.00859   0.04821
           A5          -0.00667   0.00112  -0.00667   0.06798
           A6          -0.00705   0.01961  -0.00705   0.00225   0.03921
           A7          -0.03291   0.00205  -0.03291  -0.00349   0.00410
           D1           0.00253   0.00204  -0.00256   0.00784   0.01880
           D2           0.00256  -0.01676  -0.00253  -0.00784  -0.01880
                          A7        D1        D2
           A7           0.06801
           D1          -0.00667   0.01897
           D2           0.00667  -0.00242   0.01897
 ITU=  0
     Eigenvalues ---    0.03040   0.06263   0.06301   0.08179   0.10343
     Eigenvalues ---    0.10550   0.11214   0.39914   0.46810
 Angle between quadratic step and forces=  20.02 degrees.
 Linear search not attempted -- first point.
 Iteration  1 RMS(Cart)=  0.02298495 RMS(Int)=  0.00010652
 Iteration  2 RMS(Cart)=  0.00022458 RMS(Int)=  0.00002901
 Iteration  3 RMS(Cart)=  0.00000002 RMS(Int)=  0.00002901
 ITry= 1 IFail=0 DXMaxC= 5.05D-02 DCOld= 1.00D+10 DXMaxT= 3.00D-01 DXLimC= 3.00D+00 Rises=F
 Variable       Old X    -DE/DX   Delta X   Delta X   Delta X     New X
                                 (Linear)    (Quad)   (Total)
    R1        3.33975   0.00044   0.00000  -0.00085  -0.00085   3.33890
    R2        3.33975   0.00044   0.00000  -0.00085  -0.00085   3.33890
    R3        4.77351   0.00225   0.00000   0.02172   0.02172   4.79522
    R4        4.77351   0.00225   0.00000   0.02172   0.02172   4.79522
    A1        1.66409  -0.00019   0.00000  -0.00380  -0.00378   1.66031
    A2        1.66409  -0.00032   0.00000  -0.00382  -0.00377   1.66032
    A3        1.66409  -0.00019   0.00000  -0.00380  -0.00378   1.66031
    A4        1.66409  -0.00032   0.00000  -0.00382  -0.00377   1.66032
    A5        1.80743   0.00122   0.00000   0.02267   0.02268   1.83011
    A6        3.32819  -0.00038   0.00000  -0.00759  -0.00756   3.32063
    A7        2.90340   0.00045   0.00000   0.00426   0.00429   2.90769
    D1        1.68989  -0.00013   0.00000  -0.00211  -0.00215   1.68774
    D2       -1.68989   0.00013   0.00000   0.00211   0.00215  -1.68774
         Item               Value     Threshold  Converged?
 Maximum Force            0.002252     0.000450     NO 
 RMS     Force            0.000987     0.000300     NO 
 Maximum Displacement     0.050472     0.001800     NO 
 RMS     Displacement     0.023174     0.001200     NO 
 Predicted change in Energy=-6.691495D-05
                           ----------------------------
                           ! Non-Optimized Parameters !
                           ! (Angstroms and Degrees)  !
 --------------------------                            --------------------------
 ! Name  Definition              Value          Derivative Info.                !
 --------------------------------------------------------------------------------
 ! R1    R(1,2)                  1.7669         -DE/DX =    0.0004              !
 ! R2    R(1,3)                  1.7669         -DE/DX =    0.0004              !
 ! R3    R(1,4)                  2.5375         -DE/DX =    0.0023              !
 ! R4    R(1,5)                  2.5375         -DE/DX =    0.0023              !
 ! A1    A(2,1,4)               95.129          -DE/DX =   -0.0002              !
 ! A2    A(2,1,5)               95.1295         -DE/DX =   -0.0003              !
 ! A3    A(3,1,4)               95.129          -DE/DX =   -0.0002              !
 ! A4    A(3,1,5)               95.1295         -DE/DX =   -0.0003              !
 ! A5    A(4,1,5)              104.8577         -DE/DX =    0.0012              !
 ! A6    L(2,1,3,4,-1)         190.258          -DE/DX =   -0.0004              !
 ! A7    L(2,1,3,4,-2)         166.5985         -DE/DX =    0.0005              !
 ! D1    D(2,1,5,4)             96.7004         -DE/DX =   -0.0001              !
 ! D2    D(3,1,5,4)            -96.7004         -DE/DX =    0.0001              !
 --------------------------------------------------------------------------------
 GradGradGradGradGradGradGradGradGradGradGradGradGradGradGradGradGradGrad

 Leave Link  103 at Fri Jun 24 12:20:19 2022, MaxMem=  1048576000 cpu:               0.1 elap:               0.1
 (Enter /home/pcmt/gaussian/g16.C.01/g16/l9999.exe)
 -------------------------------------------------------------------
 Center     Atomic                Nonadiabatic Coup. (Bohr^-1)
 Number     Number              X              Y              Z
 -------------------------------------------------------------------
      1       92           0.000000000   -0.000000000   -0.000000000
      2        8          -0.000000000    0.000000000   -0.001308728
      3        8           0.000000000   -0.000000000    0.001308728
      4       17          -0.003467404    0.000000000    0.000000000
      5       17           0.003467404   -0.000000000    0.000000000
 -------------------------------------------------------------------
 Cartesian Nonad. Coup.:  Max     0.003467404 RMS     0.001353300
 Electronic transition elements 
                 1             2             3             4 
      1  -0.154757D+04 -0.154756D+04 -0.154756D+04 -0.154756D+04
      2   0.000000D+00  0.000000D+00  0.000000D+00  0.000000D+00
      3   0.000000D+00  0.000000D+00  0.000000D+00  0.000000D+00
      4   0.000000D+00  0.000000D+00  0.000000D+00  0.000000D+00
      5   0.000000D+00  0.000000D+00  0.000000D+00  0.000000D+00
      6   0.000000D+00  0.000000D+00  0.000000D+00  0.000000D+00
      7   0.000000D+00  0.000000D+00  0.000000D+00  0.000000D+00
      8   0.000000D+00  0.000000D+00  0.000000D+00  0.000000D+00
      9   0.000000D+00  0.000000D+00  0.000000D+00  0.000000D+00
     10   0.000000D+00  0.000000D+00  0.000000D+00  0.000000D+00
     11   0.000000D+00  0.000000D+00  0.000000D+00  0.000000D+00
     12   0.000000D+00  0.000000D+00  0.000000D+00  0.000000D+00
     13   0.000000D+00  0.000000D+00  0.000000D+00  0.000000D+00
     14   0.000000D+00  0.000000D+00  0.000000D+00  0.000000D+00
     15   0.000000D+00  0.000000D+00  0.000000D+00  0.000000D+00
     16   0.000000D+00  0.000000D+00  0.000000D+00  0.000000D+00
 Electronic Transition Derivatives 
                 1             2             3             4             5 
      1   0.000000D+00  0.000000D+00  0.000000D+00  0.000000D+00  0.000000D+00
      2   0.000000D+00  0.000000D+00  0.000000D+00  0.000000D+00  0.000000D+00
      3   0.000000D+00  0.000000D+00  0.000000D+00  0.000000D+00  0.000000D+00
      4   0.000000D+00  0.000000D+00  0.000000D+00  0.000000D+00  0.000000D+00
      5   0.000000D+00  0.000000D+00  0.000000D+00  0.000000D+00  0.000000D+00
      6   0.000000D+00  0.000000D+00  0.000000D+00  0.000000D+00  0.000000D+00
      7   0.000000D+00  0.000000D+00  0.000000D+00  0.000000D+00  0.000000D+00
      8   0.000000D+00  0.000000D+00  0.000000D+00  0.000000D+00  0.000000D+00
      9   0.000000D+00  0.000000D+00  0.000000D+00  0.000000D+00  0.000000D+00
     10   0.000000D+00  0.000000D+00  0.000000D+00  0.000000D+00  0.000000D+00
     11   0.000000D+00  0.000000D+00  0.000000D+00  0.000000D+00  0.000000D+00
     12   0.000000D+00  0.000000D+00  0.000000D+00  0.000000D+00  0.000000D+00
     13   0.000000D+00  0.000000D+00  0.000000D+00  0.000000D+00  0.000000D+00
     14   0.000000D+00  0.000000D+00  0.000000D+00  0.000000D+00  0.000000D+00
     15   0.000000D+00  0.000000D+00  0.000000D+00  0.000000D+00  0.000000D+00
     16   0.000000D+00  0.000000D+00  0.000000D+00  0.000000D+00  0.000000D+00
                 6             7             8             9            10 
      1   0.000000D+00  0.000000D+00  0.000000D+00  0.000000D+00  0.000000D+00
      2   0.000000D+00  0.000000D+00  0.000000D+00  0.000000D+00  0.000000D+00
      3   0.000000D+00  0.000000D+00  0.000000D+00  0.000000D+00  0.000000D+00
      4   0.000000D+00  0.000000D+00  0.000000D+00  0.000000D+00  0.000000D+00
      5   0.000000D+00  0.000000D+00  0.000000D+00  0.000000D+00  0.000000D+00
      6   0.000000D+00  0.000000D+00  0.000000D+00  0.000000D+00  0.000000D+00
      7   0.000000D+00  0.000000D+00  0.000000D+00  0.000000D+00  0.000000D+00
      8   0.000000D+00  0.000000D+00  0.000000D+00  0.000000D+00  0.000000D+00
      9   0.000000D+00  0.000000D+00  0.000000D+00  0.000000D+00  0.000000D+00
     10   0.000000D+00  0.000000D+00  0.000000D+00  0.000000D+00  0.000000D+00
     11   0.000000D+00  0.000000D+00  0.000000D+00  0.000000D+00  0.000000D+00
     12   0.000000D+00  0.000000D+00  0.000000D+00  0.000000D+00  0.000000D+00
     13   0.000000D+00  0.000000D+00  0.000000D+00  0.000000D+00  0.000000D+00
     14   0.000000D+00  0.000000D+00  0.000000D+00  0.000000D+00  0.000000D+00
     15   0.000000D+00  0.000000D+00  0.000000D+00  0.000000D+00  0.000000D+00
     16   0.000000D+00  0.000000D+00  0.000000D+00  0.000000D+00  0.000000D+00
                11            12            13            14            15 
      1   0.000000D+00  0.000000D+00  0.000000D+00  0.000000D+00  0.000000D+00
      2   0.000000D+00  0.000000D+00  0.000000D+00  0.000000D+00  0.000000D+00
      3   0.000000D+00  0.000000D+00  0.000000D+00  0.000000D+00  0.000000D+00
      4   0.000000D+00  0.000000D+00  0.000000D+00  0.000000D+00  0.000000D+00
      5   0.000000D+00  0.000000D+00  0.000000D+00  0.000000D+00  0.000000D+00
      6   0.000000D+00  0.000000D+00  0.000000D+00  0.000000D+00  0.000000D+00
      7   0.000000D+00  0.000000D+00  0.000000D+00  0.000000D+00  0.000000D+00
      8   0.000000D+00  0.000000D+00  0.000000D+00  0.000000D+00  0.000000D+00
      9   0.000000D+00  0.000000D+00  0.000000D+00  0.000000D+00  0.000000D+00
     10   0.000000D+00  0.000000D+00  0.000000D+00  0.000000D+00  0.000000D+00
     11   0.000000D+00  0.000000D+00  0.000000D+00  0.000000D+00  0.000000D+00
     12   0.000000D+00  0.000000D+00  0.000000D+00  0.000000D+00  0.000000D+00
     13   0.000000D+00  0.000000D+00  0.000000D+00  0.000000D+00  0.000000D+00
     14   0.000000D+00  0.000000D+00  0.000000D+00  0.000000D+00  0.000000D+00
     15   0.000000D+00  0.000000D+00  0.000000D+00  0.000000D+00  0.000000D+00
     16   0.000000D+00  0.000000D+00  0.000000D+00  0.000000D+00  0.000000D+00
                16            17            18 
      1   0.000000D+00  0.000000D+00  0.000000D+00
      2   0.000000D+00  0.000000D+00  0.000000D+00
      3   0.000000D+00  0.000000D+00  0.000000D+00
      4   0.000000D+00  0.000000D+00  0.000000D+00
      5   0.000000D+00  0.000000D+00  0.000000D+00
      6   0.000000D+00  0.000000D+00  0.000000D+00
      7   0.000000D+00  0.000000D+00  0.000000D+00
      8   0.000000D+00  0.000000D+00  0.000000D+00
      9   0.000000D+00  0.000000D+00  0.000000D+00
     10   0.000000D+00  0.000000D+00  0.000000D+00
     11   0.000000D+00  0.000000D+00  0.000000D+00
     12   0.000000D+00  0.000000D+00  0.000000D+00
     13   0.000000D+00  0.000000D+00  0.000000D+00
     14   0.000000D+00  0.000000D+00  0.000000D+00
     15   0.000000D+00  0.000000D+00  0.000000D+00
     16   0.000000D+00  0.000000D+00  0.000000D+00

 ----------------------------------------------------------------------

 Electric dipole moment (input orientation):
 (Debye = 10**-18 statcoulomb cm , SI units = C m)
                  (au)            (Debye)         (10**-30 SI)
   Tot        0.168081D+01      0.427219D+01      0.142505D+02
   x          0.000000D+00      0.000000D+00      0.000000D+00
   y          0.168081D+01      0.427219D+01      0.142505D+02
   z          0.000000D+00      0.000000D+00      0.000000D+00

 Dipole polarizability, Alpha (input orientation).
 (esu units = cm**3 , SI units = C**2 m**2 J**-1)
 Alpha(0;0):
               (au)            (10**-24 esu)      (10**-40 SI)
   iso        0.970292D+02      0.143782D+02      0.159980D+02
   aniso      0.673930D+02      0.998661D+01      0.111116D+02
   xx         0.762249D+02      0.112954D+02      0.125678D+02
   yx         0.000000D+00      0.000000D+00      0.000000D+00
   yy         0.729448D+02      0.108093D+02      0.120270D+02
   zx         0.000000D+00      0.000000D+00      0.000000D+00
   zy         0.000000D+00      0.000000D+00      0.000000D+00
   zz         0.141918D+03      0.210301D+02      0.233991D+02

 ----------------------------------------------------------------------

 Dipole orientation:
    92          0.00000000         -0.00000000          0.49129608
     8         -3.30166602         -0.00000000          0.99418759
     8          3.30166602          0.00000000          0.99418759
    17         -0.00000000          3.75021188         -2.46205511
    17          0.00000000         -3.75021188         -2.46205511

 Electric dipole moment (dipole orientation):
 (Debye = 10**-18 statcoulomb cm , SI units = C m)
                  (au)            (Debye)         (10**-30 SI)
   Tot        0.168081D+01      0.427219D+01      0.142505D+02
   x          0.000000D+00      0.000000D+00      0.000000D+00
   y          0.000000D+00      0.000000D+00      0.000000D+00
   z          0.168081D+01      0.427219D+01      0.142505D+02

 Dipole polarizability, Alpha (dipole orientation).
 (esu units = cm**3 , SI units = C**2 m**2 J**-1)
 Alpha(0;0):
               (au)            (10**-24 esu)      (10**-40 SI)
   iso        0.970292D+02      0.143782D+02      0.159980D+02
   aniso      0.673930D+02      0.998661D+01      0.111116D+02
   xx         0.762249D+02      0.112954D+02      0.125678D+02
   yx         0.000000D+00      0.000000D+00      0.000000D+00
   yy         0.141918D+03      0.210301D+02      0.233991D+02
   zx         0.000000D+00      0.000000D+00      0.000000D+00
   zy         0.000000D+00      0.000000D+00      0.000000D+00
   zz         0.729448D+02      0.108093D+02      0.120270D+02

 ----------------------------------------------------------------------

 Test job not archived.
 1\1\GINC-U-5-1\Freq\RPBE1PBE TD-FC\Gen\Cl2O2U1\VALLET\24-Jun-2022\0\\#
 p PBE1PBE/GEN GFInput GFPrint 5D 7F Pseudo=Read IOP(2/9=2, 4/69=2, 6/7
 =3, 8/10=91, 8/37=22, 8/38=0) EmpiricalDispersion=GD3BJ Symm=(Loose) I
 nt=(UltraFine) Guess=(CheckPoint) Geom=CheckPoint Scf=(NoVarAcc,MaxCyc
 le=100,conver=8) td=(triplets,nstates=4,root=3) Freq\\[UO2Cl4]2- - PBE
 0+D3BJ - ES\\0,1\U,0.,0.2599826888,0.\O,-1.7471664162,0.5261014148,0.\
 O,1.7471664162,0.5261014148,0.\Cl,0.,-1.3028634536,-1.9845266617\Cl,0.
 ,-1.3028634536,1.9845266617\\Version=ES64L-G16RevC.01\State=1-A1\HF=-1
 547.6430498\RMSD=2.245e-09\RMSF=1.122e-03\ZeroPoint=0.0071023\Thermal=
 0.0141127\ETot=-1547.5480447\HTot=-1547.5471005\GTot=-1547.5890187\Dip
 ole=0.,1.6808109,0.\DipoleDeriv=1.9148992,0.,0.,0.,1.5980233,0.,0.,0.,
 1.7942504,-0.729431,0.1931729,0.,0.1612551,-0.4113266,0.,0.,0.,-0.3582
 678,-0.7294309,-0.1931729,0.,-0.1612551,-0.4113266,0.,0.,0.,-0.3582678
 ,-0.2280187,0.,0.,0.,-0.3876851,-0.152081,0.,-0.1860234,-0.5388574,-0.
 2280187,0.,0.,0.,-0.3876851,0.152081,0.,0.1860234,-0.5388574\Polar=76.
 2248706,-0.0000003,72.9448384,0.,0.,141.9179625\PG=C02V [C2(U1),SGV(O2
 ),SGV'(Cl2)]\NImag=0\\0.82638155,0.,0.15495415,0.,0.,0.19796987,-0.399
 42037,0.03702910,0.,0.42413615,0.04795923,-0.03043066,0.,-0.05442725,0
 .02208296,0.,0.,-0.03207879,0.,0.,0.01846633,-0.39942037,-0.03702911,0
 .,-0.03297739,0.00243978,0.,0.42413615,-0.04795924,-0.03043066,0.,-0.0
 0243978,0.01077579,0.,0.05442725,0.02208296,0.,0.,-0.03207879,0.,0.,0.
 01175564,0.,0.,0.01846633,-0.01377040,0.,0.,0.00413080,0.00201412,0.00
 304399,0.00413080,-0.00201412,-0.00304399,0.00517925,0.,-0.04704642,-0
 .04878588,0.00991896,-0.00121405,-0.00127586,-0.00991896,-0.00121405,-
 0.00127586,0.,0.04490762,0.,-0.04828280,-0.06690615,0.01271384,-0.0021
 0856,0.00092841,-0.01271384,-0.00210856,0.00092841,0.,0.05191876,0.066
 89220,-0.01377040,0.,0.,0.00413080,0.00201412,-0.00304399,0.00413080,-
 0.00201412,0.00304399,0.00032954,0.,0.,0.00517925,0.,-0.04704642,0.048
 78588,0.00991896,-0.00121405,0.00127586,-0.00991896,-0.00121405,0.0012
 7586,0.,0.00456689,0.00058116,0.,0.04490762,0.,0.04828280,-0.06690615,
 -0.01271384,0.00210856,0.00092841,0.01271384,0.00210856,0.00092841,0.,
 -0.00058116,-0.00184288,0.,-0.05191876,0.06689220\\0.,-0.00283005,0.,0
 .00048448,0.00023028,0.,-0.00048448,0.00023028,0.,0.,0.00118474,0.0019
 3360,0.,0.00118474,-0.00193360\\\@


 ON A TOMBSTONE, "HERE LIES LESTER MOORE,
 FOUR SLUGS FROM A 44, NO LES, NO MORE".
 Job cpu time:       0 days  2 hours  4 minutes 28.5 seconds.
 Elapsed time:       0 days  0 hours 32 minutes 11.6 seconds.
 File lengths (MBytes):  RWF=    261 Int=      0 D2E=      0 Chk=     15 Scr=      1
 Normal termination of Gaussian 16 at Fri Jun 24 12:20:19 2022.
