

 Parallel Execution: Process Information
 ==============================================================================
 Rank   Node Name                              NodeID   MyNodeRank  NodeMaster
    0   u-0-4.local                               0          0          0
    1   u-0-4.local                               0          1         -1
    2   u-0-4.local                               1          0          1
    3   u-0-4.local                               1          1         -1
    4   u-0-4.local                               2          0          2
    5   u-0-4.local                               2          1         -1
    6   u-0-4.local                               3          0          3
    7   u-0-4.local                               3          1         -1
 ==============================================================================


May use up to 31228MB of RAM as shared memory on node 0
May use up to 31250MB of RAM as shared memory on node 2
May use up to 31250MB of RAM as shared memory on node 1
May use up to 31250MB of RAM as shared memory on node 3

 *******************************************************************************
 *                                                                             *
 *  --------------------------------                                           *
 *   Amsterdam Modeling Suite (AMS)              2021.106                      *
 *  --------------------------------                                           *
 *                                               r99350 2021-12-03             *
 *                                                                             *
 *                                                                             *
 *                              =================                              *
 *                              |               |                              *
 *                              |     A M S     |                              *
 *                              |               |                              *
 *                              =================                              *
 *                                                                             *
 *                                                                             *
 *   Online information and documentation:  https://www.scm.com/support/       *
 *   E-mail:  support@scm.com   info@scm.com                                   *
 *                                                                             *
 *   Scientific publications using AMS results must be properly referenced     *
 *   See the User Manuals (or the web site) for recommended citations          *
 *   The terms and conditions of the End User License Agreement apply to       *
 *   the use of AMS, https://www.scm.com/license-terms/                        *
 *                                                                             *
 **********************  x86_64_linux_intel / intelmpi  ************************
 
 Licensed to: Dr. Val?rie Vallet / Laboratoire PhLAM UMR 8523 / Villeneuve d'Ascq Cedex / FRANCE 2023-01-20 17:43:01
 SCM User ID: u10325
  
 AMS 2021.106  RunTime: Jan25-2023 12:35:43  ShM Nodes: 4  Procs: 8

 AMS jobname: abs-uo2_2cl.tddft-TDA-camb3lyp.SO
 AMS jobid  : 1705467395

 Start   directory: /home/vallet/Bent-Uranyl/uo2_2cl/bent/geom-pbe0-d3-gp/ams-absorption-emission/fullkernel/
 Results directory: /home/vallet/Bent-Uranyl/uo2_2cl/bent/geom-pbe0-d3-gp/ams-absorption-emission/fullkernel/abs-uo2_2cl.tddft-TDA-camb3lyp.SO.results/
 Scratch directory: /state/partition2/vallet/923100.phlam-s-sakura/amstmp_abs-uo2_2cl.tddft-TDA-camb3lyp.SO_kid0.1705467395/


 Communication costs MPI_COMM_WORLD:      2.820 usec per message,   0.0088 usec per 8-byte item
 Communication costs for intra-node:      0.586 usec per message,   0.0024 usec per 8-byte item

 RNG seed: -474803233 575137427 -1013010060 -1890803797 823813449 -1116772806 -1036898407 -621180421



                      ************************************************************************
                      *  ADF 2021.106  RunTime: Jan25-2023 12:35:44  ShM Nodes: 4  Procs: 8  *
                      ************************************************************************
  
       ****************************
       * SINGLE POINT CALCULATION *
       ****************************
 
--------
Geometry
--------
Formula: Cl2O2U
Atoms
  Index Symbol   x (angstrom)   y (angstrom)   z (angstrom)
      1      U     0.00000000     0.24857300     0.00000000
      2      O    -1.72161300     0.45005400     0.00000000
      3      O     1.72161300     0.45005400     0.00000000
      4     Cl     0.00000000    -1.22183600    -2.03057600
      5     Cl     0.00000000    -1.22183600     2.03057600
 
Total System Charge             0.00000
Bonding info available!
 
 
----------------
ADF Engine Input
----------------
 
 Basis
 Type TZ2P
 Core None
 End
 XC
 libxc CAM-B3LYP
 End
 Relativity
 Level Spin-Orbit
 End
 Symmetry NOSYM
 Excitations
 Lowest 16
 NTO Yes
 Davidson
 End
 FullKernel Yes
 End
 TDA Yes
 

 Title: *** (NO TITLE) ***

 *** adf ***



 ===========================
 A T T A C H E D   F I L E S
 ===========================
  



 ===============================
 M O D E L   P A R A M E T E R S
 ===============================
  
 Range separated functional parameters:
 RANGESEP OMEGA=    0.330000 ALPHA=    0.190000 BETA=    0.460000 ERF-LONGRANGE 
                                                                                
   
 DENSITY FUNCTIONAL POTENTIAL (scf)

   *** Range Separated Functional ***

 Regions:
   LibXC version: 5. 1. 2
   Exchange-correlation  T T T T F F F T T F F F F F F F F F F F F
   HF parameter =   0.65000000
   LIBXC GAMMA=    0.330000 ALPHA=    0.650000 BETA=   -0.460000
   CAM version of B3LYP (Hybrid GGA)
[1] T. Yanai, D. P. Tew, and N. C. Handy, Chem. Phys. Lett. 393, 51 (2004)

 SPIN  (restricted / unrestr.)
    Molecule:                          Restricted                               
    Fragments:                         Restricted                               

 OTHER ASPECTS
    Relativistic Corrections:          Spin-Orbit (ZORA,MAPA)                  == Not Default ==

    Nuclear Charge Density Model:      Point Charge Nuclei                      
    Core Treatment:                    Frozen Orbital(s)                        

    Hyperfine or Zeeman Interaction:   ---                                      
 WARNING: Atom coordinates do not satisfy full symmetry (probably due to orienta
 tion).


 Fragment File(s)
 ----------------
 U:
         file : /home/vallet/Bent-Uranyl/uo2_2cl/bent/geom-pbe0-d3-gp/ams-absorption-emission/fullkernel/abs-uo2_2cl.tddft-TDA-camb3lyp.SO.results/t21.6C1485AF.U
         jobid: 0
         title: Uranium (TZ2P, all electron)
 O:
         file : /home/vallet/Bent-Uranyl/uo2_2cl/bent/geom-pbe0-d3-gp/ams-absorption-emission/fullkernel/abs-uo2_2cl.tddft-TDA-camb3lyp.SO.results/t21.1786ABF1.O
         jobid: 0
         title: Oxygen (TZ2P)
 Cl:
         file : /home/vallet/Bent-Uranyl/uo2_2cl/bent/geom-pbe0-d3-gp/ams-absorption-emission/fullkernel/abs-uo2_2cl.tddft-TDA-camb3lyp.SO.results/t21.37D265EA.Cl
         jobid: 0
         title: Chlorine (TZ2P)



 ===============
 G E O M E T R Y  ***  3D  Molecule  ***
 ===============
  

 ATOMS
 =====                            X Y Z                    CHARGE
                                (Angstrom)             Nucl     +Core       At.Mass
                       --------------------------    ----------------       -------
    1  U               0.0000    0.2486    0.0000     92.00     92.00      238.0508
    2  O              -1.7216    0.4501    0.0000      8.00      8.00       15.9949
    3  O               1.7216    0.4501    0.0000      8.00      8.00       15.9949
    4  Cl              0.0000   -1.2218   -2.0306     17.00     17.00       34.9689
    5  Cl              0.0000   -1.2218    2.0306     17.00     17.00       34.9689


 FRAGMENTS
 =========                                     Atoms in this Fragment     Cart. coord.s (Angstrom)
                                               -------------------------------------------------------
    1  U                                                 1  U            0.0000    0.2486    0.0000
    2  O                                                 2  O           -1.7216    0.4501    0.0000
    3  O                                                 3  O            1.7216    0.4501    0.0000
    4  Cl                                                4  Cl           0.0000   -1.2218   -2.0306
    5  Cl                                                5  Cl           0.0000   -1.2218    2.0306


 Interatomic Distance Matrix (Angstrom)
 --------------------------------------

   1)     0.000
   2)     1.733   0.000
   3)     1.733   3.443   0.000
   4)     2.507   3.144   3.144   0.000
   5)     2.507   3.144   3.144   4.061   0.000

 Min. Distance =    1.7334
 Max. Distance =    4.0612



 =====================================
 S Y M M E T R Y ,   E L E C T R O N S
 =====================================
  
 Symmetry: NOSYM

 Double Group Irreducible Representations (spinor symmetry)
 -----------------------------------------------------------
 A1/2

 Symmetry is NOT used when fitting density


 Configuration of Valence Electrons
 ==================================
 ( determined in the SCF procedure )

 Total:   142

 Net Charge: 0 (Nuclei minus Electrons)

 Aufbau principle for MO occupations will be applied through SCF cycle no.     150
 Thereafter, the program will assign electrons to MOs that are spatially
 similar to the occupied MOs in a "reference" cycle ("KeepOrbitals").
 The reference cycle is always the PREVIOUS cycle: it will evolve with
 the SCF procedure.
1
 ***************************************************************************************************



                                      ****************************************
                                      *  B U I L D : (Fragments, Functions)  *
                                      ****************************************
  



 =======
 S F O s  ***  (Symmetrized Fragment Orbitals)  ***
 =======
  
 SFOs are linear combinations of (valence) Fragment Orbitals (FOs), such that the SFOs transform as the
 irreducible representations of the (molecular) symmetry group. Each SFO is therefore characterized by
 an irrep of the molecule and by a few (or only one) generating FOs.
 The SFOs constitute a symmetry-adapted basis for the Fock matrix. The MO eigenvector coefficients in
 this basis provide a direct interpretation of the MOs in terms of Frontier Orbital Theory.

 The SFOs are combined with auxiliary Core Functions (CFs) to ensure orthogonalization on the (frozen)
 Core Orbitals (COs). The Core-orthogonalized SFOs (CSFOs) constitute the true Fock basis.

 The FOs, and hence also the (C)SFOs are combinations of the elementary basis functions (BAS). The basis
 functions that participate in the description of the SFOs depend on the irrep. The indices of the
 involved functions are printed below for each irrep.
 (The complete list of primitive basis functions is printed in another section)

 Total nr. of (C)SFOs (summation over all irreps) :   255

 NOTE: a (C)SFO that is defined as a combination of more than one FO is usually NOT normalized.

 NOTE: the (C)SFOs are single group symmetry adapted orbitals.



                                       === A ===
 Nr. of SFOs :  255
 Cartesian basis functions that participate in this irrep (total number =   295) :
      1     2     3     4     5     6     7     8     9    10
     11    12    13    14    15    16    17    20    23    26
     29    32    35    38    41    44    47    50   157    18
     21    24    27    30    33    36    39    42    45    48
     51   158    19    22    25    28    31    34    37    40
     43    46    49    52   159    53    59    65    71    77
     83    89    95   101    54    60    66    72    78    84
     90    96   102    55    61    67    73    79    85    91
     97   103    56    62    68    74    80    86    92    98
    104    57    63    69    75    81    87    93    99   105
     58    64    70    76    82    88    94   100   106   107
    117   127   137   147   108   118   128   138   148   109
    119   129   139   149   110   120   130   140   150   111
    121   131   141   151   112   122   132   142   152   113
    123   133   143   153   114   124   134   144   154   115
    125   135   145   155   116   126   136   146   156   160
    161   162   163   164   165   168   171   166   169   172
    167   170   173   174   175   176   177   178   179   180
    181   182   183   184   185   186   187   188   189   190
    191   192   193   194   195   198   201   196   199   202
    197   200   203   204   205   206   207   208   209   210
    211   212   213   214   215   216   217   218   219   220
    221   222   223   230   231   232   224   227   233   236
    239   225   228   234   237   240   226   229   235   238
    241   242   243   244   245   246   247   248   249   250
    251   252   253   254   255   256   257   258   259   260
    261   268   269   270   262   265   271   274   277   263
    266   272   275   278   264   267   273   276   279   280
    281   282   283   284   285   286   287   288   289   290
    291   292   293   294   295

    SFO  (index         Fragment          Generating    Expansion in Fragment Orbitals
  indx  incl.CFs)   Occup   Orb.Energy   FragmentType  Coeff.   Orbital     on Fragment
 --------------------------------------------------------------------------------------
     1       1      2.000   -4251.353 au  U             1.00      1 S               1
                        ( -115685.196 eV)
     2       2      2.000    -796.441 au  U             1.00      2 S               1
                        (  -21672.268 eV)
     3       3      2.000    -201.892 au  U             1.00      3 S               1
                        (   -5493.749 eV)
     4       4      2.000     -51.876 au  U             1.00      4 S               1
                        (   -1411.630 eV)
     5       5      2.000     -11.729 au  U             1.00      5 S               1
                        (    -319.169 eV)
     6       6      2.000      -1.945 au  U             1.00      6 S               1
                        (     -52.927 eV)
     7       7      2.000      -0.213 au  U             1.00      7 S               1
                        (      -5.803 eV)
     8       8       --         0.048 au  U             1.00      8 S               1
                        (       1.304 eV)
     9       9       --         0.365 au  U             1.00      9 S               1
                        (       9.926 eV)
    10      10       --         1.710 au  U             1.00     10 S               1
                        (      46.524 eV)
    11      11       --         8.839 au  U             1.00     11 S               1
                        (     240.518 eV)
    12      12       --        47.595 au  U             1.00     12 S               1
                        (    1295.126 eV)
    13      13       --      1081.390 au  U             1.00     13 S               1
                        (   29426.119 eV)
    14      14       --      5574.427 au  U             1.00     14 S               1
                        (  151687.880 eV)
    15      15       --     16665.542 au  U             1.00     15 S               1
                        (  453492.485 eV)
    16      16       --     47306.872 au  U             1.00     16 S               1
                        ( 1287285.481 eV)
    17      17      2.000    -662.462 au  U             1.00      1 P:x             1
                        (  -18026.515 eV)
    18      18      2.000    -164.599 au  U             1.00      2 P:x             1
                        (   -4478.961 eV)
    19      19      2.000     -39.673 au  U             1.00      3 P:x             1
                        (   -1079.554 eV)
    20      20      2.000      -7.932 au  U             1.00      4 P:x             1
                        (    -215.835 eV)
    21      21      2.000      -0.994 au  U             1.00      5 P:x             1
                        (     -27.045 eV)
    22      22       --         0.020 au  U             1.00      6 P:x             1
                        (       0.556 eV)
    23      23       --         0.440 au  U             1.00      7 P:x             1
                        (      11.979 eV)
    24      24       --         1.884 au  U             1.00      8 P:x             1
                        (      51.264 eV)
    25      25       --         7.651 au  U             1.00      9 P:x             1
                        (     208.183 eV)
    26      26       --        36.626 au  U             1.00     10 P:x             1
                        (     996.655 eV)
    27      27       --       183.078 au  U             1.00     11 P:x             1
                        (    4981.805 eV)
    28      28       --      1551.559 au  U             1.00     12 P:x             1
                        (   42220.063 eV)
    29      29       --     11017.681 au  U             1.00     13 P:x             1
                        (  299806.354 eV)
    30      30      2.000    -662.462 au  U             1.00      1 P:y             1
                        (  -18026.515 eV)
    31      31      2.000    -164.599 au  U             1.00      2 P:y             1
                        (   -4478.961 eV)
    32      32      2.000     -39.673 au  U             1.00      3 P:y             1
                        (   -1079.554 eV)
    33      33      2.000      -7.932 au  U             1.00      4 P:y             1
                        (    -215.835 eV)
    34      34      2.000      -0.994 au  U             1.00      5 P:y             1
                        (     -27.045 eV)
    35      35       --         0.020 au  U             1.00      6 P:y             1
                        (       0.556 eV)
    36      36       --         0.440 au  U             1.00      7 P:y             1
                        (      11.979 eV)
    37      37       --         1.884 au  U             1.00      8 P:y             1
                        (      51.264 eV)
    38      38       --         7.651 au  U             1.00      9 P:y             1
                        (     208.183 eV)
    39      39       --        36.626 au  U             1.00     10 P:y             1
                        (     996.655 eV)
    40      40       --       183.078 au  U             1.00     11 P:y             1
                        (    4981.805 eV)
    41      41       --      1551.559 au  U             1.00     12 P:y             1
                        (   42220.063 eV)
    42      42       --     11017.681 au  U             1.00     13 P:y             1
                        (  299806.354 eV)
    43      43      2.000    -662.462 au  U             1.00      1 P:z             1
                        (  -18026.515 eV)
    44      44      2.000    -164.599 au  U             1.00      2 P:z             1
                        (   -4478.961 eV)
    45      45      2.000     -39.673 au  U             1.00      3 P:z             1
                        (   -1079.554 eV)
    46      46      2.000      -7.932 au  U             1.00      4 P:z             1
                        (    -215.835 eV)
    47      47      2.000      -0.994 au  U             1.00      5 P:z             1
                        (     -27.045 eV)
    48      48       --         0.020 au  U             1.00      6 P:z             1
                        (       0.556 eV)
    49      49       --         0.440 au  U             1.00      7 P:z             1
                        (      11.979 eV)
    50      50       --         1.884 au  U             1.00      8 P:z             1
                        (      51.264 eV)
    51      51       --         7.651 au  U             1.00      9 P:z             1
                        (     208.183 eV)
    52      52       --        36.626 au  U             1.00     10 P:z             1
                        (     996.655 eV)
    53      53       --       183.078 au  U             1.00     11 P:z             1
                        (    4981.805 eV)
    54      54       --      1551.559 au  U             1.00     12 P:z             1
                        (   42220.063 eV)
    55      55       --     11017.681 au  U             1.00     13 P:z             1
                        (  299806.354 eV)
    56      56      2.000    -132.007 au  U             1.00      1 D:z2            1
                        (   -3592.098 eV)
    57      57      2.000     -27.274 au  U             1.00      2 D:z2            1
                        (    -742.171 eV)
    58      58      2.000      -3.863 au  U             1.00      3 D:z2            1
                        (    -105.123 eV)
    59      59      0.200      -0.032 au  U             1.00      4 D:z2            1
                        (      -0.878 eV)
    60      60       --         0.088 au  U             1.00      5 D:z2            1
                        (       2.389 eV)
    61      61       --         0.510 au  U             1.00      6 D:z2            1
                        (      13.866 eV)
    62      62       --         3.364 au  U             1.00      7 D:z2            1
                        (      91.549 eV)
    63      63       --        24.287 au  U             1.00      8 D:z2            1
                        (     660.870 eV)
    64      64       --       197.255 au  U             1.00      9 D:z2            1
                        (    5367.594 eV)
    65      65      2.000    -132.007 au  U             1.00      1 D:x2-y2         1
                        (   -3592.098 eV)
    66      66      2.000     -27.274 au  U             1.00      2 D:x2-y2         1
                        (    -742.171 eV)
    67      67      2.000      -3.863 au  U             1.00      3 D:x2-y2         1
                        (    -105.123 eV)
    68      68      0.200      -0.032 au  U             1.00      4 D:x2-y2         1
                        (      -0.878 eV)
    69      69       --         0.088 au  U             1.00      5 D:x2-y2         1
                        (       2.389 eV)
    70      70       --         0.510 au  U             1.00      6 D:x2-y2         1
                        (      13.866 eV)
    71      71       --         3.364 au  U             1.00      7 D:x2-y2         1
                        (      91.549 eV)
    72      72       --        24.287 au  U             1.00      8 D:x2-y2         1
                        (     660.870 eV)
    73      73       --       197.255 au  U             1.00      9 D:x2-y2         1
                        (    5367.594 eV)
    74      74      2.000    -132.007 au  U             1.00      1 D:xy            1
                        (   -3592.098 eV)
    75      75      2.000     -27.274 au  U             1.00      2 D:xy            1
                        (    -742.171 eV)
    76      76      2.000      -3.863 au  U             1.00      3 D:xy            1
                        (    -105.123 eV)
    77      77      0.200      -0.032 au  U             1.00      4 D:xy            1
                        (      -0.878 eV)
    78      78       --         0.088 au  U             1.00      5 D:xy            1
                        (       2.389 eV)
    79      79       --         0.510 au  U             1.00      6 D:xy            1
                        (      13.866 eV)
    80      80       --         3.364 au  U             1.00      7 D:xy            1
                        (      91.549 eV)
    81      81       --        24.287 au  U             1.00      8 D:xy            1
                        (     660.870 eV)
    82      82       --       197.255 au  U             1.00      9 D:xy            1
                        (    5367.594 eV)
    83      83      2.000    -132.007 au  U             1.00      1 D:xz            1
                        (   -3592.098 eV)
    84      84      2.000     -27.274 au  U             1.00      2 D:xz            1
                        (    -742.171 eV)
    85      85      2.000      -3.863 au  U             1.00      3 D:xz            1
                        (    -105.123 eV)
    86      86      0.200      -0.032 au  U             1.00      4 D:xz            1
                        (      -0.878 eV)
    87      87       --         0.088 au  U             1.00      5 D:xz            1
                        (       2.389 eV)
    88      88       --         0.510 au  U             1.00      6 D:xz            1
                        (      13.866 eV)
    89      89       --         3.364 au  U             1.00      7 D:xz            1
                        (      91.549 eV)
    90      90       --        24.287 au  U             1.00      8 D:xz            1
                        (     660.870 eV)
    91      91       --       197.255 au  U             1.00      9 D:xz            1
                        (    5367.594 eV)
    92      92      2.000    -132.007 au  U             1.00      1 D:yz            1
                        (   -3592.098 eV)
    93      93      2.000     -27.274 au  U             1.00      2 D:yz            1
                        (    -742.171 eV)
    94      94      2.000      -3.863 au  U             1.00      3 D:yz            1
                        (    -105.123 eV)
    95      95      0.200      -0.032 au  U             1.00      4 D:yz            1
                        (      -0.878 eV)
    96      96       --         0.088 au  U             1.00      5 D:yz            1
                        (       2.389 eV)
    97      97       --         0.510 au  U             1.00      6 D:yz            1
                        (      13.866 eV)
    98      98       --         3.364 au  U             1.00      7 D:yz            1
                        (      91.549 eV)
    99      99       --        24.287 au  U             1.00      8 D:yz            1
                        (     660.870 eV)
   100     100       --       197.255 au  U             1.00      9 D:yz            1
                        (    5367.594 eV)
   101     101      2.000     -14.070 au  U             1.00      1 F:z3            1
                        (    -382.852 eV)
   102     102      0.429      -0.056 au  U             1.00      2 F:z3            1
                        (      -1.528 eV)
   103     103       --         0.379 au  U             1.00      3 F:z3            1
                        (      10.321 eV)
   104     104       --         2.236 au  U             1.00      4 F:z3            1
                        (      60.848 eV)
   105     105       --        21.518 au  U             1.00      5 F:z3            1
                        (     585.544 eV)
   106     106      2.000     -14.070 au  U             1.00      1 F:z             1
                        (    -382.852 eV)
   107     107      0.429      -0.056 au  U             1.00      2 F:z             1
                        (      -1.528 eV)
   108     108       --         0.379 au  U             1.00      3 F:z             1
                        (      10.321 eV)
   109     109       --         2.236 au  U             1.00      4 F:z             1
                        (      60.848 eV)
   110     110       --        21.518 au  U             1.00      5 F:z             1
                        (     585.544 eV)
   111     111      2.000     -14.070 au  U             1.00      1 F:xyz           1
                        (    -382.852 eV)
   112     112      0.429      -0.056 au  U             1.00      2 F:xyz           1
                        (      -1.528 eV)
   113     113       --         0.379 au  U             1.00      3 F:xyz           1
                        (      10.321 eV)
   114     114       --         2.236 au  U             1.00      4 F:xyz           1
                        (      60.848 eV)
   115     115       --        21.518 au  U             1.00      5 F:xyz           1
                        (     585.544 eV)
   116     116      2.000     -14.070 au  U             1.00      1 F:z2x           1
                        (    -382.852 eV)
   117     117      0.429      -0.056 au  U             1.00      2 F:z2x           1
                        (      -1.528 eV)
   118     118       --         0.379 au  U             1.00      3 F:z2x           1
                        (      10.321 eV)
   119     119       --         2.236 au  U             1.00      4 F:z2x           1
                        (      60.848 eV)
   120     120       --        21.518 au  U             1.00      5 F:z2x           1
                        (     585.544 eV)
   121     121      2.000     -14.070 au  U             1.00      1 F:z2y           1
                        (    -382.852 eV)
   122     122      0.429      -0.056 au  U             1.00      2 F:z2y           1
                        (      -1.528 eV)
   123     123       --         0.379 au  U             1.00      3 F:z2y           1
                        (      10.321 eV)
   124     124       --         2.236 au  U             1.00      4 F:z2y           1
                        (      60.848 eV)
   125     125       --        21.518 au  U             1.00      5 F:z2y           1
                        (     585.544 eV)
   126     126      2.000     -14.070 au  U             1.00      1 F:x             1
                        (    -382.852 eV)
   127     127      0.429      -0.056 au  U             1.00      2 F:x             1
                        (      -1.528 eV)
   128     128       --         0.379 au  U             1.00      3 F:x             1
                        (      10.321 eV)
   129     129       --         2.236 au  U             1.00      4 F:x             1
                        (      60.848 eV)
   130     130       --        21.518 au  U             1.00      5 F:x             1
                        (     585.544 eV)
   131     131      2.000     -14.070 au  U             1.00      1 F:y             1
                        (    -382.852 eV)
   132     132      0.429      -0.056 au  U             1.00      2 F:y             1
                        (      -1.528 eV)
   133     133       --         0.379 au  U             1.00      3 F:y             1
                        (      10.321 eV)
   134     134       --         2.236 au  U             1.00      4 F:y             1
                        (      60.848 eV)
   135     135       --        21.518 au  U             1.00      5 F:y             1
                        (     585.544 eV)
   136     136      2.000     -19.398 au  O             1.00      1 S               2
                        (    -527.846 eV)
   137     137      2.000      -1.055 au  O             1.00      2 S               2
                        (     -28.706 eV)
   138     138       --         0.898 au  O             1.00      3 S               2
                        (      24.442 eV)
   139     139       --        13.659 au  O             1.00      4 S               2
                        (     371.685 eV)
   140     140       --       122.205 au  O             1.00      5 S               2
                        (    3325.373 eV)
   141     141      1.333      -0.391 au  O             1.00      1 P:x             2
                        (     -10.628 eV)
   142     142       --         0.430 au  O             1.00      2 P:x             2
                        (      11.691 eV)
   143     143       --         3.994 au  O             1.00      3 P:x             2
                        (     108.695 eV)
   144     144      1.333      -0.391 au  O             1.00      1 P:y             2
                        (     -10.628 eV)
   145     145       --         0.430 au  O             1.00      2 P:y             2
                        (      11.691 eV)
   146     146       --         3.994 au  O             1.00      3 P:y             2
                        (     108.695 eV)
   147     147      1.333      -0.391 au  O             1.00      1 P:z             2
                        (     -10.628 eV)
   148     148       --         0.430 au  O             1.00      2 P:z             2
                        (      11.691 eV)
   149     149       --         3.994 au  O             1.00      3 P:z             2
                        (     108.695 eV)
   150     150       --         1.180 au  O             1.00      1 D:z2            2
                        (      32.112 eV)
   151     151       --         1.180 au  O             1.00      1 D:x2-y2         2
                        (      32.112 eV)
   152     152       --         1.180 au  O             1.00      1 D:xy            2
                        (      32.112 eV)
   153     153       --         1.180 au  O             1.00      1 D:xz            2
                        (      32.112 eV)
   154     154       --         1.180 au  O             1.00      1 D:yz            2
                        (      32.112 eV)
   155     155       --         3.501 au  O             1.00      1 F:z3            2
                        (      95.277 eV)
   156     156       --         3.501 au  O             1.00      1 F:z             2
                        (      95.277 eV)
   157     157       --         3.501 au  O             1.00      1 F:xyz           2
                        (      95.277 eV)
   158     158       --         3.501 au  O             1.00      1 F:z2x           2
                        (      95.277 eV)
   159     159       --         3.501 au  O             1.00      1 F:z2y           2
                        (      95.277 eV)
   160     160       --         3.501 au  O             1.00      1 F:x             2
                        (      95.277 eV)
   161     161       --         3.501 au  O             1.00      1 F:y             2
                        (      95.277 eV)
   162     162      2.000     -19.398 au  O             1.00      1 S               3
                        (    -527.846 eV)
   163     163      2.000      -1.055 au  O             1.00      2 S               3
                        (     -28.706 eV)
   164     164       --         0.898 au  O             1.00      3 S               3
                        (      24.442 eV)
   165     165       --        13.659 au  O             1.00      4 S               3
                        (     371.685 eV)
   166     166       --       122.205 au  O             1.00      5 S               3
                        (    3325.373 eV)
   167     167      1.333      -0.391 au  O             1.00      1 P:x             3
                        (     -10.628 eV)
   168     168       --         0.430 au  O             1.00      2 P:x             3
                        (      11.691 eV)
   169     169       --         3.994 au  O             1.00      3 P:x             3
                        (     108.695 eV)
   170     170      1.333      -0.391 au  O             1.00      1 P:y             3
                        (     -10.628 eV)
   171     171       --         0.430 au  O             1.00      2 P:y             3
                        (      11.691 eV)
   172     172       --         3.994 au  O             1.00      3 P:y             3
                        (     108.695 eV)
   173     173      1.333      -0.391 au  O             1.00      1 P:z             3
                        (     -10.628 eV)
   174     174       --         0.430 au  O             1.00      2 P:z             3
                        (      11.691 eV)
   175     175       --         3.994 au  O             1.00      3 P:z             3
                        (     108.695 eV)
   176     176       --         1.180 au  O             1.00      1 D:z2            3
                        (      32.112 eV)
   177     177       --         1.180 au  O             1.00      1 D:x2-y2         3
                        (      32.112 eV)
   178     178       --         1.180 au  O             1.00      1 D:xy            3
                        (      32.112 eV)
   179     179       --         1.180 au  O             1.00      1 D:xz            3
                        (      32.112 eV)
   180     180       --         1.180 au  O             1.00      1 D:yz            3
                        (      32.112 eV)
   181     181       --         3.501 au  O             1.00      1 F:z3            3
                        (      95.277 eV)
   182     182       --         3.501 au  O             1.00      1 F:z             3
                        (      95.277 eV)
   183     183       --         3.501 au  O             1.00      1 F:xyz           3
                        (      95.277 eV)
   184     184       --         3.501 au  O             1.00      1 F:z2x           3
                        (      95.277 eV)
   185     185       --         3.501 au  O             1.00      1 F:z2y           3
                        (      95.277 eV)
   186     186       --         3.501 au  O             1.00      1 F:x             3
                        (      95.277 eV)
   187     187       --         3.501 au  O             1.00      1 F:y             3
                        (      95.277 eV)
   188     188      2.000    -102.006 au  Cl            1.00      1 S               4
                        (   -2775.733 eV)
   189     189      2.000      -9.646 au  Cl            1.00      2 S               4
                        (    -262.473 eV)
   190     190      2.000      -0.914 au  Cl            1.00      3 S               4
                        (     -24.882 eV)
   191     191       --         0.270 au  Cl            1.00      4 S               4
                        (       7.338 eV)
   192     192       --         2.124 au  Cl            1.00      5 S               4
                        (      57.791 eV)
   193     193       --        12.863 au  Cl            1.00      6 S               4
                        (     350.012 eV)
   194     194       --       206.203 au  Cl            1.00      7 S               4
                        (    5611.064 eV)
   195     195      2.000      -7.339 au  Cl            1.00      1 P:x             4
                        (    -199.700 eV)
   196     196      1.667      -0.392 au  Cl            1.00      2 P:x             4
                        (     -10.673 eV)
   197     197       --         0.296 au  Cl            1.00      3 P:x             4
                        (       8.050 eV)
   198     198       --         2.241 au  Cl            1.00      4 P:x             4
                        (      60.977 eV)
   199     199       --        18.987 au  Cl            1.00      5 P:x             4
                        (     516.660 eV)
   200     200      2.000      -7.339 au  Cl            1.00      1 P:y             4
                        (    -199.700 eV)
   201     201      1.667      -0.392 au  Cl            1.00      2 P:y             4
                        (     -10.673 eV)
   202     202       --         0.296 au  Cl            1.00      3 P:y             4
                        (       8.050 eV)
   203     203       --         2.241 au  Cl            1.00      4 P:y             4
                        (      60.977 eV)
   204     204       --        18.987 au  Cl            1.00      5 P:y             4
                        (     516.660 eV)
   205     205      2.000      -7.339 au  Cl            1.00      1 P:z             4
                        (    -199.700 eV)
   206     206      1.667      -0.392 au  Cl            1.00      2 P:z             4
                        (     -10.673 eV)
   207     207       --         0.296 au  Cl            1.00      3 P:z             4
                        (       8.050 eV)
   208     208       --         2.241 au  Cl            1.00      4 P:z             4
                        (      60.977 eV)
   209     209       --        18.987 au  Cl            1.00      5 P:z             4
                        (     516.660 eV)
   210     210       --         0.498 au  Cl            1.00      1 D:z2            4
                        (      13.551 eV)
   211     211       --         0.498 au  Cl            1.00      1 D:x2-y2         4
                        (      13.551 eV)
   212     212       --         0.498 au  Cl            1.00      1 D:xy            4
                        (      13.551 eV)
   213     213       --         0.498 au  Cl            1.00      1 D:xz            4
                        (      13.551 eV)
   214     214       --         0.498 au  Cl            1.00      1 D:yz            4
                        (      13.551 eV)
   215     215       --         1.307 au  Cl            1.00      1 F:z3            4
                        (      35.555 eV)
   216     216       --         1.307 au  Cl            1.00      1 F:z             4
                        (      35.555 eV)
   217     217       --         1.307 au  Cl            1.00      1 F:xyz           4
                        (      35.555 eV)
   218     218       --         1.307 au  Cl            1.00      1 F:z2x           4
                        (      35.555 eV)
   219     219       --         1.307 au  Cl            1.00      1 F:z2y           4
                        (      35.555 eV)
   220     220       --         1.307 au  Cl            1.00      1 F:x             4
                        (      35.555 eV)
   221     221       --         1.307 au  Cl            1.00      1 F:y             4
                        (      35.555 eV)
   222     222      2.000    -102.006 au  Cl            1.00      1 S               5
                        (   -2775.733 eV)
   223     223      2.000      -9.646 au  Cl            1.00      2 S               5
                        (    -262.473 eV)
   224     224      2.000      -0.914 au  Cl            1.00      3 S               5
                        (     -24.882 eV)
   225     225       --         0.270 au  Cl            1.00      4 S               5
                        (       7.338 eV)
   226     226       --         2.124 au  Cl            1.00      5 S               5
                        (      57.791 eV)
   227     227       --        12.863 au  Cl            1.00      6 S               5
                        (     350.012 eV)
   228     228       --       206.203 au  Cl            1.00      7 S               5
                        (    5611.064 eV)
   229     229      2.000      -7.339 au  Cl            1.00      1 P:x             5
                        (    -199.700 eV)
   230     230      1.667      -0.392 au  Cl            1.00      2 P:x             5
                        (     -10.673 eV)
   231     231       --         0.296 au  Cl            1.00      3 P:x             5
                        (       8.050 eV)
   232     232       --         2.241 au  Cl            1.00      4 P:x             5
                        (      60.977 eV)
   233     233       --        18.987 au  Cl            1.00      5 P:x             5
                        (     516.660 eV)
   234     234      2.000      -7.339 au  Cl            1.00      1 P:y             5
                        (    -199.700 eV)
   235     235      1.667      -0.392 au  Cl            1.00      2 P:y             5
                        (     -10.673 eV)
   236     236       --         0.296 au  Cl            1.00      3 P:y             5
                        (       8.050 eV)
   237     237       --         2.241 au  Cl            1.00      4 P:y             5
                        (      60.977 eV)
   238     238       --        18.987 au  Cl            1.00      5 P:y             5
                        (     516.660 eV)
   239     239      2.000      -7.339 au  Cl            1.00      1 P:z             5
                        (    -199.700 eV)
   240     240      1.667      -0.392 au  Cl            1.00      2 P:z             5
                        (     -10.673 eV)
   241     241       --         0.296 au  Cl            1.00      3 P:z             5
                        (       8.050 eV)
   242     242       --         2.241 au  Cl            1.00      4 P:z             5
                        (      60.977 eV)
   243     243       --        18.987 au  Cl            1.00      5 P:z             5
                        (     516.660 eV)
   244     244       --         0.498 au  Cl            1.00      1 D:z2            5
                        (      13.551 eV)
   245     245       --         0.498 au  Cl            1.00      1 D:x2-y2         5
                        (      13.551 eV)
   246     246       --         0.498 au  Cl            1.00      1 D:xy            5
                        (      13.551 eV)
   247     247       --         0.498 au  Cl            1.00      1 D:xz            5
                        (      13.551 eV)
   248     248       --         0.498 au  Cl            1.00      1 D:yz            5
                        (      13.551 eV)
   249     249       --         1.307 au  Cl            1.00      1 F:z3            5
                        (      35.555 eV)
   250     250       --         1.307 au  Cl            1.00      1 F:z             5
                        (      35.555 eV)
   251     251       --         1.307 au  Cl            1.00      1 F:xyz           5
                        (      35.555 eV)
   252     252       --         1.307 au  Cl            1.00      1 F:z2x           5
                        (      35.555 eV)
   253     253       --         1.307 au  Cl            1.00      1 F:z2y           5
                        (      35.555 eV)
   254     254       --         1.307 au  Cl            1.00      1 F:x             5
                        (      35.555 eV)
   255     255       --         1.307 au  Cl            1.00      1 F:y             5
                        (      35.555 eV)



 ================================
 (Slater-type)  F U N C T I O N S  ***  (Basis and Fit)  ***
 ================================
  

 Atom Type    1  (U)
 ==============

 Valence Basis Sets:  43
 -----------------------
   1 S 1060.000000
   1 S  245.000000
   1 S  108.800000
   2 S  134.900000
   2 S   47.200000
   3 S   60.000000
   3 S   25.900000
   4 S   15.800000
   4 S   11.100000
   5 S   10.450000
   5 S    7.250000
   6 S    5.000000
   6 S    3.300000
   7 S    2.350000
   7 S    1.550000
   7 S    1.020000
   2 P  245.000000
   2 P   85.500000
   2 P   44.200000
   3 P   25.100000
   3 P   18.100000
   4 P   17.900000
   4 P   12.300000
   5 P    8.650000
   5 P    6.000000
   6 P    4.450000
   6 P    3.000000
   6 P    2.100000
   3 D   33.250000
   3 D   22.050000
   4 D   15.250000
   4 D   10.550000
   5 D    7.250000
   5 D    4.650000
   6 D    2.900000
   6 D    1.600000
   6 D    0.880000
   4 F   17.450000
   4 F    9.600000
   5 F    5.800000
   5 F    3.000000
   5 F    1.390000
   7 P    1.550000

 Charge Fitting Sets (for the computation of the Coulomb Potential):  87
 -----------------------------------------------------------------------
   1 S 2120.000000
   1 S 1594.965000
   1 S 1199.960000
   1 S  902.780000
   1 S  679.200000
   1 S  510.990000
   1 S  384.440000
   1 S  289.230000
   1 S  217.600000
   1 S  129.260000
   2 S  142.240000
   2 S   95.100000
   3 S   93.370000
   3 S   66.470000
   4 S   62.580000
   4 S   46.380000
   5 S   42.820000
   5 S   32.660000
   6 S   29.850000
   6 S   23.270000
   7 S   21.150000
   7 S   16.770000
   8 S   15.210000
   8 S   12.230000
   9 S   11.070000
   9 S    9.010000
  10 S    8.150000
  10 S    6.700000
  11 S    6.070000
  11 S    5.030000
  12 S    4.550000
  12 S    3.810000
  12 S    3.180000
  13 S    2.880000
  13 S    2.420000
  13 S    2.040000
   2 P  153.000000
   3 P  127.690000
   4 P  104.620000
   5 P   85.360000
   6 P   69.720000
   7 P   57.130000
   7 P   40.980000
   8 P   33.710000
   8 P   24.670000
   9 P   20.380000
   9 P   15.180000
  10 P   12.590000
  10 P    9.510000
  11 P    7.920000
  11 P    6.060000
  12 P    5.070000
  12 P    3.920000
  13 P    3.290000
  13 P    2.570000
   3 D  130.850000
   4 D   91.890000
   5 D   65.340000
   6 D   47.080000
   7 D   34.350000
   8 D   25.360000
   9 D   18.910000
   9 D   12.740000
  10 D    9.600000
  10 D    6.590000
  11 D    5.010000
  11 D    3.500000
  12 D    2.680000
  12 D    1.900000
   4 F  118.400000
   5 F   72.780000
   6 F   45.920000
   7 F   29.630000
   8 F   19.500000
   9 F   13.050000
  10 F    8.870000
  10 F    5.510000
  11 F    3.800000
  11 F    2.410000
   5 G   53.800000
   6 G   31.220000
   7 G   18.640000
   8 G   11.410000
   9 G    7.140000
  10 G    4.550000
  11 G    2.950000
  11 G    1.760000

 Atom Type    2  (O)
 ==============

 Valence Basis Sets:  10
 -----------------------
   1 S    9.800000
   1 S    6.800000
   2 S    7.580000
   2 S    2.880000
   2 S    1.720000
   2 P    4.080000
   2 P    2.080000
   2 P    1.120000
   3 D    2.000000
   4 F    3.000000

 Charge Fitting Sets (for the computation of the Coulomb Potential):  22
 -----------------------------------------------------------------------
   1 S   19.600000
   2 S   22.600000
   2 S   15.680000
   2 S   10.890000
   2 S    7.560000
   3 S    7.690000
   3 S    5.650000
   3 S    4.150000
   3 S    3.050000
   3 S    2.240000
   2 P   12.860000
   2 P    7.680000
   3 P    6.780000
   3 P    4.390000
   3 P    2.840000
   3 D    8.800000
   3 D    5.580000
   3 D    3.530000
   3 D    2.240000
   4 F    6.200000
   4 F    3.700000
   5 G    4.500000

 Atom Type    3  (Cl)
 ==============

 Valence Basis Sets:  14
 -----------------------
   1 S   20.300000
   1 S   15.250000
   2 S    6.250000
   2 S    4.450000
   2 P    8.850000
   2 P    5.050000
   3 S    3.450000
   3 S    2.300000
   3 S    1.600000
   3 P    3.350000
   3 P    2.050000
   3 P    1.200000
   3 D    2.000000
   4 F    2.000000

 Charge Fitting Sets (for the computation of the Coulomb Potential):  30
 -----------------------------------------------------------------------
   1 S   40.600000
   1 S   24.830000
   2 S   28.080000
   2 S   19.200000
   3 S   19.250000
   3 S   13.970000
   3 S   10.130000
   4 S    9.710000
   4 S    7.320000
   4 S    5.510000
   5 S    5.170000
   5 S    4.000000
   5 S    3.100000
   5 S    2.400000
   2 P   29.150000
   3 P   21.740000
   4 P   16.160000
   4 P    9.600000
   5 P    7.180000
   5 P    4.480000
   5 P    2.800000
   3 D   21.950000
   4 D   15.750000
   4 D    9.040000
   5 D    6.550000
   5 D    3.960000
   5 D    2.400000
   4 F    5.000000
   4 F    3.000000
   5 G    3.500000


 BAS: List of all Elementary Cartesian Basis Functions
 =====================================================

 The numbering in the list below (to the right of the function characteristics) is referred
 to in print-outs of MO eigenvectors and Mulliken populations in the BAS representation
 (as contrasted to the SFO representation).

 Notes:
 1. The functions are characterized by a polynomial prefactor (powers of x,y,z and r) and
    an exponential decay factor alpha.
 2. Since the basis sets are specific for an atom TYPE, the individual functions occur on
    all atoms of that type.
 3. The word 'Core' in the left margin signals that it is a Core Function (CF) : not a
    degree of freedom in the valence set, but only used to ensure orthogonalization of
    the other valence basis functions on the frozen Core Orbitals.


 (power of) X  Y  Z  R     Alpha  on Atom
            ==========     =====     ==========

 U                                    1
                                  ---------------------------------------------------------------------------
            0  0  0  0  1060.000      1
            0  0  0  0   245.000      2
            0  0  0  0   108.800      3
            0  0  0  1   134.900      4
            0  0  0  1    47.200      5
            0  0  0  2    60.000      6
            0  0  0  2    25.900      7
            0  0  0  3    15.800      8
            0  0  0  3    11.100      9
            0  0  0  4    10.450     10
            0  0  0  4     7.250     11
            0  0  0  5     5.000     12
            0  0  0  5     3.300     13
            0  0  0  6     2.350     14
            0  0  0  6     1.550     15
            0  0  0  6     1.020     16
            1  0  0  0   245.000     17
            0  1  0  0   245.000     18
            0  0  1  0   245.000     19
            1  0  0  0    85.500     20
            0  1  0  0    85.500     21
            0  0  1  0    85.500     22
            1  0  0  0    44.200     23
            0  1  0  0    44.200     24
            0  0  1  0    44.200     25
            1  0  0  1    25.100     26
            0  1  0  1    25.100     27
            0  0  1  1    25.100     28
            1  0  0  1    18.100     29
            0  1  0  1    18.100     30
            0  0  1  1    18.100     31
            1  0  0  2    17.900     32
            0  1  0  2    17.900     33
            0  0  1  2    17.900     34
            1  0  0  2    12.300     35
            0  1  0  2    12.300     36
            0  0  1  2    12.300     37
            1  0  0  3     8.650     38
            0  1  0  3     8.650     39
            0  0  1  3     8.650     40
            1  0  0  3     6.000     41
            0  1  0  3     6.000     42
            0  0  1  3     6.000     43
            1  0  0  4     4.450     44
            0  1  0  4     4.450     45
            0  0  1  4     4.450     46
            1  0  0  4     3.000     47
            0  1  0  4     3.000     48
            0  0  1  4     3.000     49
            1  0  0  4     2.100     50
            0  1  0  4     2.100     51
            0  0  1  4     2.100     52
            2  0  0  0    33.250     53
            1  1  0  0    33.250     54
            1  0  1  0    33.250     55
            0  2  0  0    33.250     56
            0  1  1  0    33.250     57
            0  0  2  0    33.250     58
            2  0  0  0    22.050     59
            1  1  0  0    22.050     60
            1  0  1  0    22.050     61
            0  2  0  0    22.050     62
            0  1  1  0    22.050     63
            0  0  2  0    22.050     64
            2  0  0  1    15.250     65
            1  1  0  1    15.250     66
            1  0  1  1    15.250     67
            0  2  0  1    15.250     68
            0  1  1  1    15.250     69
            0  0  2  1    15.250     70
            2  0  0  1    10.550     71
            1  1  0  1    10.550     72
            1  0  1  1    10.550     73
            0  2  0  1    10.550     74
            0  1  1  1    10.550     75
            0  0  2  1    10.550     76
            2  0  0  2     7.250     77
            1  1  0  2     7.250     78
            1  0  1  2     7.250     79
            0  2  0  2     7.250     80
            0  1  1  2     7.250     81
            0  0  2  2     7.250     82
            2  0  0  2     4.650     83
            1  1  0  2     4.650     84
            1  0  1  2     4.650     85
            0  2  0  2     4.650     86
            0  1  1  2     4.650     87
            0  0  2  2     4.650     88
            2  0  0  3     2.900     89
            1  1  0  3     2.900     90
            1  0  1  3     2.900     91
            0  2  0  3     2.900     92
            0  1  1  3     2.900     93
            0  0  2  3     2.900     94
            2  0  0  3     1.600     95
            1  1  0  3     1.600     96
            1  0  1  3     1.600     97
            0  2  0  3     1.600     98
            0  1  1  3     1.600     99
            0  0  2  3     1.600    100
            2  0  0  3     0.880    101
            1  1  0  3     0.880    102
            1  0  1  3     0.880    103
            0  2  0  3     0.880    104
            0  1  1  3     0.880    105
            0  0  2  3     0.880    106
            3  0  0  0    17.450    107
            2  1  0  0    17.450    108
            2  0  1  0    17.450    109
            1  2  0  0    17.450    110
            1  1  1  0    17.450    111
            1  0  2  0    17.450    112
            0  3  0  0    17.450    113
            0  2  1  0    17.450    114
            0  1  2  0    17.450    115
            0  0  3  0    17.450    116
            3  0  0  0     9.600    117
            2  1  0  0     9.600    118
            2  0  1  0     9.600    119
            1  2  0  0     9.600    120
            1  1  1  0     9.600    121
            1  0  2  0     9.600    122
            0  3  0  0     9.600    123
            0  2  1  0     9.600    124
            0  1  2  0     9.600    125
            0  0  3  0     9.600    126
            3  0  0  1     5.800    127
            2  1  0  1     5.800    128
            2  0  1  1     5.800    129
            1  2  0  1     5.800    130
            1  1  1  1     5.800    131
            1  0  2  1     5.800    132
            0  3  0  1     5.800    133
            0  2  1  1     5.800    134
            0  1  2  1     5.800    135
            0  0  3  1     5.800    136
            3  0  0  1     3.000    137
            2  1  0  1     3.000    138
            2  0  1  1     3.000    139
            1  2  0  1     3.000    140
            1  1  1  1     3.000    141
            1  0  2  1     3.000    142
            0  3  0  1     3.000    143
            0  2  1  1     3.000    144
            0  1  2  1     3.000    145
            0  0  3  1     3.000    146
            3  0  0  1     1.390    147
            2  1  0  1     1.390    148
            2  0  1  1     1.390    149
            1  2  0  1     1.390    150
            1  1  1  1     1.390    151
            1  0  2  1     1.390    152
            0  3  0  1     1.390    153
            0  2  1  1     1.390    154
            0  1  2  1     1.390    155
            0  0  3  1     1.390    156
            1  0  0  5     1.550    157
            0  1  0  5     1.550    158
            0  0  1  5     1.550    159

 O                                    2    3
                                  ---------------------------------------------------------------------------
            0  0  0  0     9.800    160  190
            0  0  0  0     6.800    161  191
            0  0  0  1     7.580    162  192
            0  0  0  1     2.880    163  193
            0  0  0  1     1.720    164  194
            1  0  0  0     4.080    165  195
            0  1  0  0     4.080    166  196
            0  0  1  0     4.080    167  197
            1  0  0  0     2.080    168  198
            0  1  0  0     2.080    169  199
            0  0  1  0     2.080    170  200
            1  0  0  0     1.120    171  201
            0  1  0  0     1.120    172  202
            0  0  1  0     1.120    173  203
            2  0  0  0     2.000    174  204
            1  1  0  0     2.000    175  205
            1  0  1  0     2.000    176  206
            0  2  0  0     2.000    177  207
            0  1  1  0     2.000    178  208
            0  0  2  0     2.000    179  209
            3  0  0  0     3.000    180  210
            2  1  0  0     3.000    181  211
            2  0  1  0     3.000    182  212
            1  2  0  0     3.000    183  213
            1  1  1  0     3.000    184  214
            1  0  2  0     3.000    185  215
            0  3  0  0     3.000    186  216
            0  2  1  0     3.000    187  217
            0  1  2  0     3.000    188  218
            0  0  3  0     3.000    189  219

 Cl                                   4    5
                                  ---------------------------------------------------------------------------
            0  0  0  0    20.300    220  258
            0  0  0  0    15.250    221  259
            0  0  0  1     6.250    222  260
            0  0  0  1     4.450    223  261
            1  0  0  0     8.850    224  262
            0  1  0  0     8.850    225  263
            0  0  1  0     8.850    226  264
            1  0  0  0     5.050    227  265
            0  1  0  0     5.050    228  266
            0  0  1  0     5.050    229  267
            0  0  0  2     3.450    230  268
            0  0  0  2     2.300    231  269
            0  0  0  2     1.600    232  270
            1  0  0  1     3.350    233  271
            0  1  0  1     3.350    234  272
            0  0  1  1     3.350    235  273
            1  0  0  1     2.050    236  274
            0  1  0  1     2.050    237  275
            0  0  1  1     2.050    238  276
            1  0  0  1     1.200    239  277
            0  1  0  1     1.200    240  278
            0  0  1  1     1.200    241  279
            2  0  0  0     2.000    242  280
            1  1  0  0     2.000    243  281
            1  0  1  0     2.000    244  282
            0  2  0  0     2.000    245  283
            0  1  1  0     2.000    246  284
            0  0  2  0     2.000    247  285
            3  0  0  0     2.000    248  286
            2  1  0  0     2.000    249  287
            2  0  1  0     2.000    250  288
            1  2  0  0     2.000    251  289
            1  1  1  0     2.000    252  290
            1  0  2  0     2.000    253  291
            0  3  0  0     2.000    254  292
            0  2  1  0     2.000    255  293
            0  1  2  0     2.000    256  294
            0  0  3  0     2.000    257  295

 Total number of charge fitting functions (nprimf)       777
 Total number of Cartesian basis functions (naos)        295
 Total number of Cartesian core functions  (ncos)          0

1
 ***************************************************************************************************



                                              ***********************
                                              *  T E C H N I C A L  *
                                              ***********************
  



 =============================================================
 P A R A L L E L I Z A T I O N  and  V E C T O R I Z A T I O N
 =============================================================
  
 Nr of parallel processes:                                8
 Maximum vector length in NumInt loops:                 128



 =====================
 S C F   U P D A T E S
 =====================
  
 Max. nr. of cycles:                               300
 Convergence criterion:                              0.0000010000
   secondary criterion:                              0.0010000000

 Mix parameter (when DIIS does not apply):           0.2000000000
 Mixed ADIIS+SDIIS will be used                  
    Max number of expansion vectors:                10
    Pure ADIIS when Max([F,P]) is above              0.1000000000
    Pure SDIIS when Max([F,P]) is below              0.0010000000
 Automatic ElectronSmearing (in case of problematic SCF convergence) disabled



 =================
 P R E C I S I O N  ***  (General: NumInt, NeglectFunctionTails, ...)  ***
 =================
  

 NumInt:           Target precision:                 4.0000000000
 -------           Initial precision:                4.0000000000
                   Min. precision (optimization):    4.0000000000

 Neglect Functions:          Basis functions:        0.1000000000E-13
 ------------------          Fit functions:          0.1000000000E-13



 ===========================
 L I N E A R   S C A L I N G
 ===========================
  

 Cut-off radii density fit:                        0.1000000000E-07
 Overlap cut-off criterion AO matrix elements:     0.1000000000E-05
 Cut-offs for Coulomb potential and fitted density:0.1000000000E-07
 Cut-off criterion for Coulomb multipole terms:    0.1000000000E-07
 Progressive Convergence parameter:                 0.000000000    
1
 ***************************************************************************************************



                                            ***************************
                                            *  C O M P U T A T I O N  *
                                            ***************************
  



 ==============================
 Double group spinor symmetries  ***  (Spin-Orbit)  ***
 ==============================
  

 The double group Lowdins are spinors adapted to the irreducible representations
 of the double group. These double group Lowdins are linear combinations of
 products of the single group Lowdins and the spinfunctions. The single group
 Lowdins are  orthonormalized symmetrized fragment orbitals (SFOs).
 The complex coefficients that are used in the linear combinations are also
 known as Clebsch-Gordan coefficients.
 The spin functions (alpha,beta) span irrep e1/2


          A * e 1/2 :      A1/2

  A1/2:1 = A.alpha
  A1/2:1 = A.beta

 The table summarizes which one-electron orbital irreps (single group) couple
 with spin to which spinor irreps (double group).
 The Clebsch-Gordan series for each direct product: orbital irrep times e1/2.
                  A
            -------
  A1/2           X


 dimension (equal to the max. nr. of electrons per spinor) of the double group irreps
 ------------------------------------------------------------------------------------
  A1/2           1

 Number of elements of the density matrix on this node (used, total):     12720     43660



 ===========================================
 Numerical Integration : Fuzzy Cells (Becke)
 ===========================================
  
 Becke grid quality: NORMAL         
  
 Lebedev angular grid order:             min:  11 max:  31
 Nr. of radial points:                   min:  49 max: 175

 Total nr. of points:      69094
 Nr. of blocks:              540
 Block length:               128
 Nr. of dummy points:         26


 Test of Precision of the Numerical Integration Grid
 ===================================================

 Integral of the Total Core Density:                   0.00000000000000



 ========================
 Density Fitting (zlmFit)
 ========================
  
 ZlmFit Fit Quality: NORMAL         
  
 Max L-expansion:                        min:   7 max:   8
 Nr. of radial interpolation points:     min:  54 max: 150



 ======================
 RI Hartree-Fock Scheme
 ======================
  
 Fit Set Quality     : NORMAL
 Integration Quality : NORMAL
 Threshold Quality   : NORMAL
 Response Quality    : DEFAULT
 Is Range Separated  :  T
 Type of Range Separation : 
 Long-Range: Erf potential                                                      
                                                                                
   
 Asymptotic Coulomb       :   0.650000000000000     
 
 RIHartreeFock Dependency: number of modified vectors:           2



 =====
 S C F  ***  ScaSCF  ***
 =====
  
 Initial density matrix is calculated as sum of fragments

 CYCLE    1
 SCF Error: norm([F,P])=   1407.992027420347, max([F,P])=    320.576496959138
 orbitals (Q,E):
 ---------------
 A1/2 :133...152     ( 1.00    -0.4489)  ( 1.00    -0.4489)  ( 1.00    -0.4417)  ( 1.00    -0.4417)
                     ( 1.00    -0.4368)  ( 1.00    -0.4368)  ( 1.00    -0.4286)  ( 1.00    -0.4286)
                     ( 1.00    -0.3636)  ( 1.00    -0.3636)  ( 0.00    -0.1279)  ( 0.00    -0.1279)
                     ( 0.00    -0.1001)  ( 0.00    -0.1001)  ( 0.00    -0.0906)  ( 0.00    -0.0906)
                     ( 0.00    -0.0749)  ( 0.00    -0.0749)  ( 0.00    -0.0657)  ( 0.00    -0.0657)

 CYCLE    2
   MIX coefficients:  0.8000  0.2000
 SCF Error: norm([F,P])=      2.906670946331, max([F,P])=      0.515844305183
 orbitals (Q,E):
 ---------------
 A1/2 :133...152     ( 1.00    -0.4417)  ( 1.00    -0.4417)  ( 1.00    -0.4359)  ( 1.00    -0.4359)
                     ( 1.00    -0.4234)  ( 1.00    -0.4234)  ( 1.00    -0.4198)  ( 1.00    -0.4198)
                     ( 1.00    -0.3815)  ( 1.00    -0.3815)  ( 0.00    -0.2066)  ( 0.00    -0.2066)
                     ( 0.00    -0.2037)  ( 0.00    -0.2037)  ( 0.00    -0.1804)  ( 0.00    -0.1804)
                     ( 0.00    -0.1764)  ( 0.00    -0.1764)  ( 0.00    -0.1592)  ( 0.00    -0.1592)

 CYCLE    3
  SDIIS (wt  0.000): -0.9762  1.9762
 A-DIIS (wt  1.000):  0.0000  1.0000
  DIIS coefficients:  0.0000  1.0000
 SCF Error: norm([F,P])=      2.015529003446, max([F,P])=      0.410785551250
 orbitals (Q,E):
 ---------------
 A1/2 :133...152     ( 1.00    -0.4112)  ( 1.00    -0.4112)  ( 1.00    -0.3907)  ( 1.00    -0.3907)
                     ( 1.00    -0.3852)  ( 1.00    -0.3852)  ( 1.00    -0.3783)  ( 1.00    -0.3783)
                     ( 1.00    -0.3530)  ( 1.00    -0.3530)  ( 0.00    -0.2934)  ( 0.00    -0.2934)
                     ( 0.00    -0.2773)  ( 0.00    -0.2773)  ( 0.00    -0.2665)  ( 0.00    -0.2665)
                     ( 0.00    -0.2511)  ( 0.00    -0.2511)  ( 0.00    -0.1666)  ( 0.00    -0.1666)

 CYCLE    4
  SDIIS (wt  0.000): -0.0603  0.7292  0.3311
 A-DIIS (wt  1.000):  0.0000  0.8966  0.1034
  DIIS coefficients:  0.0000  0.8966  0.1034
 SCF Error: norm([F,P])=      2.989372995147, max([F,P])=      0.432079578595
 orbitals (Q,E):
 ---------------
 A1/2 :133...152     ( 1.00    -0.4024)  ( 1.00    -0.4024)  ( 1.00    -0.3878)  ( 1.00    -0.3878)
                     ( 1.00    -0.3784)  ( 1.00    -0.3784)  ( 1.00    -0.3706)  ( 1.00    -0.3706)
                     ( 1.00    -0.3547)  ( 1.00    -0.3547)  ( 0.00    -0.1743)  ( 0.00    -0.1743)
                     ( 0.00    -0.1557)  ( 0.00    -0.1557)  ( 0.00    -0.1450)  ( 0.00    -0.1450)
                     ( 0.00    -0.1332)  ( 0.00    -0.1332)  ( 0.00    -0.0998)  ( 0.00    -0.0998)

 CYCLE    5
  SDIIS (wt  0.000):  0.3208 -0.2932 -0.1793  1.1517
 A-DIIS (wt  1.000):  0.0000  0.5610  0.0000  0.4390
  DIIS coefficients:  0.0000  0.5610  0.0000  0.4390
 SCF Error: norm([F,P])=      0.828855839995, max([F,P])=      0.120539096944
 orbitals (Q,E):
 ---------------
 A1/2 :133...152     ( 1.00    -0.4023)  ( 1.00    -0.4023)  ( 1.00    -0.3904)  ( 1.00    -0.3904)
                     ( 1.00    -0.3797)  ( 1.00    -0.3797)  ( 1.00    -0.3762)  ( 1.00    -0.3762)
                     ( 1.00    -0.3600)  ( 1.00    -0.3600)  ( 0.00    -0.1117)  ( 0.00    -0.1117)
                     ( 0.00    -0.0976)  ( 0.00    -0.0976)  ( 0.00    -0.0849)  ( 0.00    -0.0849)
                     ( 0.00    -0.0750)  ( 0.00    -0.0750)  ( 0.00    -0.0735)  ( 0.00    -0.0735)

 CYCLE    6
  SDIIS (wt  0.831): -0.1646  0.2399  0.0660 -0.2810  1.1397
 A-DIIS (wt  0.169):  0.0000  0.0000  0.0000  0.0000  1.0000
  DIIS coefficients: -0.1368  0.1994  0.0548 -0.2335  1.1161
 SCF Error: norm([F,P])=      0.175828934532, max([F,P])=      0.017716214399
 orbitals (Q,E):
 ---------------
 A1/2 :133...152     ( 1.00    -0.4192)  ( 1.00    -0.4192)  ( 1.00    -0.4077)  ( 1.00    -0.4077)
                     ( 1.00    -0.3975)  ( 1.00    -0.3975)  ( 1.00    -0.3940)  ( 1.00    -0.3940)
                     ( 1.00    -0.3769)  ( 1.00    -0.3769)  ( 0.00    -0.1119)  ( 0.00    -0.1119)
                     ( 0.00    -0.1021)  ( 0.00    -0.1021)  ( 0.00    -0.0837)  ( 0.00    -0.0837)
                     ( 0.00    -0.0788)  ( 0.00    -0.0788)  ( 0.00    -0.0708)  ( 0.00    -0.0708)

 CYCLE    7
  SDIIS (wt  0.954): -0.0368  0.0533  0.0252 -0.0712  0.3831  0.6464
 A-DIIS (wt  0.046):  0.0000  0.0000  0.0000  0.0000  0.1276  0.8724
  DIIS coefficients: -0.0351  0.0508  0.0240 -0.0679  0.3714  0.6568
 SCF Error: norm([F,P])=      0.065567658403, max([F,P])=      0.005553520304
 orbitals (Q,E):
 ---------------
 A1/2 :133...152     ( 1.00    -0.4107)  ( 1.00    -0.4107)  ( 1.00    -0.3978)  ( 1.00    -0.3978)
                     ( 1.00    -0.3872)  ( 1.00    -0.3872)  ( 1.00    -0.3839)  ( 1.00    -0.3839)
                     ( 1.00    -0.3685)  ( 1.00    -0.3685)  ( 0.00    -0.1203)  ( 0.00    -0.1203)
                     ( 0.00    -0.1097)  ( 0.00    -0.1097)  ( 0.00    -0.0923)  ( 0.00    -0.0923)
                     ( 0.00    -0.0865)  ( 0.00    -0.0865)  ( 0.00    -0.0778)  ( 0.00    -0.0778)

 CYCLE    8
  SDIIS (wt  0.993): -0.0014  0.0030 -0.0002  0.0124  0.0660  0.2687  0.6515
 A-DIIS (wt  0.007):  0.0000  0.0000  0.0000  0.0000  0.0000  0.0000  1.0000
  DIIS coefficients: -0.0014  0.0029 -0.0001  0.0123  0.0655  0.2668  0.6539
 SCF Error: norm([F,P])=      0.019840342724, max([F,P])=      0.001700811315
 orbitals (Q,E):
 ---------------
 A1/2 :133...152     ( 1.00    -0.4124)  ( 1.00    -0.4124)  ( 1.00    -0.3998)  ( 1.00    -0.3998)
                     ( 1.00    -0.3894)  ( 1.00    -0.3894)  ( 1.00    -0.3860)  ( 1.00    -0.3860)
                     ( 1.00    -0.3701)  ( 1.00    -0.3701)  ( 0.00    -0.1184)  ( 0.00    -0.1184)
                     ( 0.00    -0.1078)  ( 0.00    -0.1078)  ( 0.00    -0.0906)  ( 0.00    -0.0906)
                     ( 0.00    -0.0847)  ( 0.00    -0.0847)  ( 0.00    -0.0761)  ( 0.00    -0.0761)

 CYCLE    9
  SDIIS (wt  1.000):  0.0011 -0.0012 -0.0016  0.0068  0.0049  0.0504  0.1508  0.7887
  DIIS coefficients:  0.0011 -0.0012 -0.0016  0.0068  0.0049  0.0504  0.1508  0.7887
 SCF Error: norm([F,P])=      0.003256695807, max([F,P])=      0.000331116213
 orbitals (Q,E):
 ---------------
 A1/2 :133...152     ( 1.00    -0.4124)  ( 1.00    -0.4124)  ( 1.00    -0.3998)  ( 1.00    -0.3998)
                     ( 1.00    -0.3895)  ( 1.00    -0.3895)  ( 1.00    -0.3861)  ( 1.00    -0.3861)
                     ( 1.00    -0.3702)  ( 1.00    -0.3702)  ( 0.00    -0.1179)  ( 0.00    -0.1179)
                     ( 0.00    -0.1072)  ( 0.00    -0.1072)  ( 0.00    -0.0901)  ( 0.00    -0.0901)
                     ( 0.00    -0.0842)  ( 0.00    -0.0842)  ( 0.00    -0.0759)  ( 0.00    -0.0759)

 CYCLE   10
  SDIIS (wt  1.000):  0.0004 -0.0007 -0.0003 -0.0009 -0.0071 -0.0204 -0.0425  0.2516  0.8199
  DIIS coefficients:  0.0004 -0.0007 -0.0003 -0.0009 -0.0071 -0.0204 -0.0425  0.2516  0.8199
 SCF Error: norm([F,P])=      0.001400032953, max([F,P])=      0.000154743585
 orbitals (Q,E):
 ---------------
 A1/2 :133...152     ( 1.00    -0.4124)  ( 1.00    -0.4124)  ( 1.00    -0.3998)  ( 1.00    -0.3998)
                     ( 1.00    -0.3894)  ( 1.00    -0.3894)  ( 1.00    -0.3860)  ( 1.00    -0.3860)
                     ( 1.00    -0.3702)  ( 1.00    -0.3702)  ( 0.00    -0.1178)  ( 0.00    -0.1178)
                     ( 0.00    -0.1072)  ( 0.00    -0.1072)  ( 0.00    -0.0900)  ( 0.00    -0.0900)
                     ( 0.00    -0.0841)  ( 0.00    -0.0841)  ( 0.00    -0.0758)  ( 0.00    -0.0758)

 CYCLE   11
  SDIIS (wt  1.000):  0.0000 -0.0001  0.0001 -0.0011 -0.0025 -0.0113 -0.0234 -0.0692  0.1234  0.9841
  DIIS coefficients:  0.0000 -0.0001  0.0001 -0.0011 -0.0025 -0.0113 -0.0234 -0.0692  0.1234  0.9841
 SCF Error: norm([F,P])=      0.000460818670, max([F,P])=      0.000063391739
 orbitals (Q,E):
 ---------------
 A1/2 :133...152     ( 1.00    -0.4124)  ( 1.00    -0.4124)  ( 1.00    -0.3998)  ( 1.00    -0.3998)
                     ( 1.00    -0.3894)  ( 1.00    -0.3894)  ( 1.00    -0.3860)  ( 1.00    -0.3860)
                     ( 1.00    -0.3702)  ( 1.00    -0.3702)  ( 0.00    -0.1179)  ( 0.00    -0.1179)
                     ( 0.00    -0.1072)  ( 0.00    -0.1072)  ( 0.00    -0.0900)  ( 0.00    -0.0900)
                     ( 0.00    -0.0841)  ( 0.00    -0.0841)  ( 0.00    -0.0758)  ( 0.00    -0.0758)

 CYCLE   12
  SDIIS (wt  1.000):  0.0000 -0.0000  0.0003  0.0001 -0.0006 -0.0013 -0.0300 -0.1099  0.0958  1.0456
  DIIS coefficients:  0.0000 -0.0000  0.0003  0.0001 -0.0006 -0.0013 -0.0300 -0.1099  0.0958  1.0456
 SCF Error: norm([F,P])=      0.000202241337, max([F,P])=      0.000031354437
 orbitals (Q,E):
 ---------------
 A1/2 :133...152     ( 1.00    -0.4124)  ( 1.00    -0.4124)  ( 1.00    -0.3998)  ( 1.00    -0.3998)
                     ( 1.00    -0.3894)  ( 1.00    -0.3894)  ( 1.00    -0.3860)  ( 1.00    -0.3860)
                     ( 1.00    -0.3702)  ( 1.00    -0.3702)  ( 0.00    -0.1179)  ( 0.00    -0.1179)
                     ( 0.00    -0.1072)  ( 0.00    -0.1072)  ( 0.00    -0.0901)  ( 0.00    -0.0901)
                     ( 0.00    -0.0842)  ( 0.00    -0.0842)  ( 0.00    -0.0758)  ( 0.00    -0.0758)

 CYCLE   13
  SDIIS (wt  1.000): -0.0000  0.0001  0.0003  0.0016  0.0027  0.0014 -0.0139 -0.0955  0.0006  1.1026
  DIIS coefficients: -0.0000  0.0001  0.0003  0.0016  0.0027  0.0014 -0.0139 -0.0955  0.0006  1.1026
 SCF Error: norm([F,P])=      0.000079499872, max([F,P])=      0.000017538590
 orbitals (Q,E):
 ---------------
 A1/2 :133...152     ( 1.00    -0.4124)  ( 1.00    -0.4124)  ( 1.00    -0.3998)  ( 1.00    -0.3998)
                     ( 1.00    -0.3894)  ( 1.00    -0.3894)  ( 1.00    -0.3860)  ( 1.00    -0.3860)
                     ( 1.00    -0.3702)  ( 1.00    -0.3702)  ( 0.00    -0.1179)  ( 0.00    -0.1179)
                     ( 0.00    -0.1072)  ( 0.00    -0.1072)  ( 0.00    -0.0900)  ( 0.00    -0.0900)
                     ( 0.00    -0.0841)  ( 0.00    -0.0841)  ( 0.00    -0.0758)  ( 0.00    -0.0758)

 CYCLE   14
  SDIIS (wt  1.000):  0.0000  0.0001  0.0010  0.0022  0.0105  0.0142 -0.0602 -0.2366  0.2403  1.0285
  DIIS coefficients:  0.0000  0.0001  0.0010  0.0022  0.0105  0.0142 -0.0602 -0.2366  0.2403  1.0285
 SCF Error: norm([F,P])=      0.000047283163, max([F,P])=      0.000009435110
 orbitals (Q,E):
 ---------------
 A1/2 :133...152     ( 1.00    -0.4124)  ( 1.00    -0.4124)  ( 1.00    -0.3998)  ( 1.00    -0.3998)
                     ( 1.00    -0.3894)  ( 1.00    -0.3894)  ( 1.00    -0.3860)  ( 1.00    -0.3860)
                     ( 1.00    -0.3702)  ( 1.00    -0.3702)  ( 0.00    -0.1179)  ( 0.00    -0.1179)
                     ( 0.00    -0.1072)  ( 0.00    -0.1072)  ( 0.00    -0.0901)  ( 0.00    -0.0901)
                     ( 0.00    -0.0841)  ( 0.00    -0.0841)  ( 0.00    -0.0758)  ( 0.00    -0.0758)

 CYCLE   15
  SDIIS (wt  1.000):  0.0000 -0.0002 -0.0003 -0.0041 -0.0063  0.0266  0.0743 -0.2509 -0.2255  1.3866
  DIIS coefficients:  0.0000 -0.0002 -0.0003 -0.0041 -0.0063  0.0266  0.0743 -0.2509 -0.2255  1.3866
 SCF Error: norm([F,P])=      0.000019508248, max([F,P])=      0.000004025201
 orbitals (Q,E):
 ---------------
 A1/2 :133...152     ( 1.00    -0.4124)  ( 1.00    -0.4124)  ( 1.00    -0.3998)  ( 1.00    -0.3998)
                     ( 1.00    -0.3894)  ( 1.00    -0.3894)  ( 1.00    -0.3860)  ( 1.00    -0.3860)
                     ( 1.00    -0.3702)  ( 1.00    -0.3702)  ( 0.00    -0.1179)  ( 0.00    -0.1179)
                     ( 0.00    -0.1072)  ( 0.00    -0.1072)  ( 0.00    -0.0900)  ( 0.00    -0.0900)
                     ( 0.00    -0.0841)  ( 0.00    -0.0841)  ( 0.00    -0.0758)  ( 0.00    -0.0758)

 CYCLE   16
  SDIIS (wt  1.000): -0.0000 -0.0001 -0.0009  0.0000  0.0084  0.0231 -0.0570 -0.1374  0.0052  1.1587
  DIIS coefficients: -0.0000 -0.0001 -0.0009  0.0000  0.0084  0.0231 -0.0570 -0.1374  0.0052  1.1587
 SCF Error: norm([F,P])=      0.000008284053, max([F,P])=      0.000001276405
 orbitals (Q,E):
 ---------------
 A1/2 :133...152     ( 1.00    -0.4124)  ( 1.00    -0.4124)  ( 1.00    -0.3998)  ( 1.00    -0.3998)
                     ( 1.00    -0.3894)  ( 1.00    -0.3894)  ( 1.00    -0.3860)  ( 1.00    -0.3860)
                     ( 1.00    -0.3702)  ( 1.00    -0.3702)  ( 0.00    -0.1179)  ( 0.00    -0.1179)
                     ( 0.00    -0.1072)  ( 0.00    -0.1072)  ( 0.00    -0.0900)  ( 0.00    -0.0900)
                     ( 0.00    -0.0841)  ( 0.00    -0.0841)  ( 0.00    -0.0758)  ( 0.00    -0.0758)

[...]
          NTO weight: 0.4798
            occ:  0.0601-0.0098i 141 a1/2:1     -0.7915-0.0036i 142 a1/2:1      0.2747+0.0092i 130 a1/2:1     -0.2742+0.4383i 129 a1/2:1      0.0086-0.0228i 133 a1/2:1      0.1152-0.0000i 134 a1/2:1      0.0066-0.0186i 132 a1/2:1     -0.0932+0.0000i 131 a1/2:1      0.0052-0.0121i 126 a1/2:1     -0.0624 0.0000i 125 a1/2:1   
           virt:  0.1472+0.4018i 150 a1/2:1     -0.7771+0.2845i 149 a1/2:1     -0.2663+0.0466i 147 a1/2:1      0.2112-0.1194i 148 a1/2:1   


    10: 141 a1/2   -> 149 a1/2      0.2716
    10: 142 a1/2   -> 150 a1/2      0.2716
    10: 130 a1/2   -> 149 a1/2      0.1488
    10: 129 a1/2   -> 150 a1/2      0.1488
    10: 142 a1/2   -> 149 a1/2      0.0219
    10: 141 a1/2   -> 150 a1/2      0.0219
    10: 130 a1/2   -> 150 a1/2      0.0112
    10: 129 a1/2   -> 149 a1/2      0.0112
    10: 133 a1/2   -> 149 a1/2      0.0078
    10: 134 a1/2   -> 150 a1/2      0.0078
    10: 132 a1/2   -> 149 a1/2      0.0052
    10: 131 a1/2   -> 150 a1/2      0.0052
    10: 141 a1/2   -> 148 a1/2      0.0041
    10: 142 a1/2   -> 147 a1/2      0.0041
    10: 129 a1/2   -> 147 a1/2      0.0037
    10: 130 a1/2   -> 148 a1/2      0.0037
    10: 141 a1/2   -> 144 a1/2      0.0032
    10: 142 a1/2   -> 143 a1/2      0.0032
    10: 142 a1/2   -> 148 a1/2      0.0029
    10: 141 a1/2   -> 147 a1/2      0.0029
  
          NTO weight: 0.4789
            occ:  0.5549+0.0334i 141 a1/2:1      0.5694+0.0026i 142 a1/2:1     -0.5654-0.0066i 130 a1/2:1      0.0754-0.1226i 129 a1/2:1     -0.0319+0.1047i 133 a1/2:1     -0.0626-0.0000i 134 a1/2:1     -0.0244+0.0857i 132 a1/2:1      0.0510+0.0000i 131 a1/2:1   
           virt: -0.8818+0.1657i 149 a1/2:1     -0.3726-0.1654i 150 a1/2:1     -0.1510+0.0320i 148 a1/2:1      0.0045+0.0166i 147 a1/2:1     -0.0316+0.0361i 144 a1/2:1     -0.0476+0.0120i 143 a1/2:1   
          NTO weight: 0.4789
            occ:  0.5686+0.0302i 141 a1/2:1     -0.5559+0.0015i 142 a1/2:1     -0.1439-0.0038i 130 a1/2:1     -0.3033+0.4772i 129 a1/2:1     -0.0182+0.0599i 133 a1/2:1      0.1094+0.0000i 134 a1/2:1     -0.0140+0.0490i 132 a1/2:1     -0.0891 0.0000i 131 a1/2:1   
           virt: -0.5244+0.2049i 149 a1/2:1      0.8062+0.0298i 150 a1/2:1     -0.0374+0.0002i 148 a1/2:1      0.0712-0.1198i 147 a1/2:1     -0.0496+0.0576i 144 a1/2:1      0.0718-0.0186i 143 a1/2:1   


    11: 142 a1/2   -> 148 a1/2      0.1648
    11: 141 a1/2   -> 147 a1/2      0.1648
    11: 142 a1/2   -> 147 a1/2      0.1405
    11: 141 a1/2   -> 148 a1/2      0.1405
    11: 130 a1/2   -> 147 a1/2      0.1371
    11: 129 a1/2   -> 148 a1/2      0.1371
    11: 142 a1/2   -> 152 a1/2      0.0115
    11: 141 a1/2   -> 151 a1/2      0.0115
    11: 133 a1/2   -> 147 a1/2      0.0082
    11: 134 a1/2   -> 148 a1/2      0.0082
    11: 130 a1/2   -> 151 a1/2      0.0066
    11: 129 a1/2   -> 152 a1/2      0.0066
    11: 132 a1/2   -> 147 a1/2      0.0061
    11: 131 a1/2   -> 148 a1/2      0.0061
    11: 129 a1/2   -> 147 a1/2      0.0057
    11: 130 a1/2   -> 148 a1/2      0.0057
    11: 118 a1/2   -> 147 a1/2      0.0024
    11: 117 a1/2   -> 148 a1/2      0.0024
    11: 126 a1/2   -> 147 a1/2      0.0018
    11: 125 a1/2   -> 148 a1/2      0.0018
  
          NTO weight: 0.4829
            occ:  0.4430-0.3874i 142 a1/2:1     -0.3394-0.4402i 141 a1/2:1      0.0605+0.3849i 130 a1/2:1      0.1354-0.3707i 129 a1/2:1      0.0858+0.0304i 133 a1/2:1     -0.0899+0.0000i 134 a1/2:1      0.0747+0.0250i 132 a1/2:1      0.0778-0.0000i 131 a1/2:1     -0.0029+0.0490i 118 a1/2:1      0.0456+0.0164i 117 a1/2:1      0.0401+0.0162i 126 a1/2:1      0.0427+0.0000i 125 a1/2:1   
           virt:  0.3146-0.3066i 148 a1/2:1     -0.6149-0.6214i 147 a1/2:1      0.0196+0.1291i 152 a1/2:1     -0.1284-0.0960i 151 a1/2:1   
          NTO weight: 0.4829
            occ: -0.4033-0.3826i 142 a1/2:1      0.4306-0.4011i 141 a1/2:1     -0.1062+0.3801i 130 a1/2:1     -0.2736+0.2774i 129 a1/2:1      0.0848+0.0300i 133 a1/2:1      0.0911-0.0000i 134 a1/2:1      0.0738+0.0247i 132 a1/2:1     -0.0788+0.0000i 131 a1/2:1     -0.0028+0.0484i 118 a1/2:1     -0.0462-0.0166i 117 a1/2:1      0.0396+0.0160i 126 a1/2:1     -0.0432 0.0000i 125 a1/2:1   
           virt: -0.3966+0.5195i 148 a1/2:1     -0.4062-0.6131i 147 a1/2:1      0.0656-0.0182i 152 a1/2:1      0.0322-0.1625i 151 a1/2:1   


    12: 141 a1/2   -> 148 a1/2      0.1645
    12: 142 a1/2   -> 147 a1/2      0.1645
    12: 141 a1/2   -> 147 a1/2      0.1403
    12: 142 a1/2   -> 148 a1/2      0.1403
    12: 129 a1/2   -> 147 a1/2      0.1360
    12: 130 a1/2   -> 148 a1/2      0.1360
    12: 142 a1/2   -> 151 a1/2      0.0121
    12: 141 a1/2   -> 152 a1/2      0.0120
    12: 134 a1/2   -> 147 a1/2      0.0091
    12: 133 a1/2   -> 148 a1/2      0.0091
    12: 129 a1/2   -> 151 a1/2      0.0068
    12: 130 a1/2   -> 152 a1/2      0.0068
    12: 131 a1/2   -> 147 a1/2      0.0058
    12: 132 a1/2   -> 148 a1/2      0.0058
    12: 130 a1/2   -> 147 a1/2      0.0056
    12: 129 a1/2   -> 148 a1/2      0.0056
    12: 117 a1/2   -> 147 a1/2      0.0024
    12: 118 a1/2   -> 148 a1/2      0.0024
    12: 125 a1/2   -> 147 a1/2      0.0018
    12: 126 a1/2   -> 148 a1/2      0.0018
  
          NTO weight: 0.4824
            occ:  0.5259+0.2820i 141 a1/2:1     -0.5345-0.1194i 142 a1/2:1     -0.4015+0.3373i 129 a1/2:1     -0.1354-0.1122i 130 a1/2:1      0.1262+0.0438i 134 a1/2:1     -0.0195+0.0009i 133 a1/2:1     -0.1003-0.0348i 131 a1/2:1     -0.0155+0.0010i 132 a1/2:1     -0.0530-0.0428i 117 a1/2:1     -0.0032-0.0094i 118 a1/2:1     -0.0561-0.0195i 125 a1/2:1     -0.0087 0.0000i 126 a1/2:1   
           virt:  0.1220+0.3458i 148 a1/2:1      0.8755-0.2277i 147 a1/2:1      0.1178-0.0584i 151 a1/2:1     -0.1487-0.0887i 152 a1/2:1   
          NTO weight: 0.4823
            occ:  0.0920+0.5399i 141 a1/2:1      0.2549+0.5396i 142 a1/2:1      0.1745-0.0211i 129 a1/2:1     -0.1554-0.5008i 130 a1/2:1     -0.0184-0.0064i 134 a1/2:1     -0.1334+0.0059i 133 a1/2:1      0.0146+0.0051i 131 a1/2:1     -0.1060+0.0066i 132 a1/2:1      0.0077+0.0062i 117 a1/2:1     -0.0219-0.0645i 118 a1/2:1      0.0082+0.0028i 125 a1/2:1     -0.0594 0.0000i 126 a1/2:1   
           virt:  0.2600+0.9262i 148 a1/2:1     -0.1217+0.1576i 147 a1/2:1     -0.0505-0.0758i 151 a1/2:1     -0.0363-0.1589i 152 a1/2:1   


    13: 142 a1/2   -> 147 a1/2      0.1803
    13: 141 a1/2   -> 148 a1/2      0.1803
    13: 142 a1/2   -> 148 a1/2      0.1266
    13: 141 a1/2   -> 147 a1/2      0.1266
    13: 129 a1/2   -> 147 a1/2      0.1056
    13: 130 a1/2   -> 148 a1/2      0.1056
    13: 142 a1/2   -> 143 a1/2      0.0276
    13: 141 a1/2   -> 144 a1/2      0.0276
    13: 133 a1/2   -> 148 a1/2      0.0101
    13: 134 a1/2   -> 147 a1/2      0.0100
    13: 141 a1/2   -> 151 a1/2      0.0093
    13: 142 a1/2   -> 152 a1/2      0.0093
    13: 132 a1/2   -> 148 a1/2      0.0057
    13: 131 a1/2   -> 147 a1/2      0.0057
    13: 142 a1/2   -> 150 a1/2      0.0054
    13: 141 a1/2   -> 149 a1/2      0.0054
    13: 130 a1/2   -> 152 a1/2      0.0037
    13: 129 a1/2   -> 151 a1/2      0.0037
    13: 129 a1/2   -> 148 a1/2      0.0025
    13: 130 a1/2   -> 147 a1/2      0.0025
  
          NTO weight: 0.4650
            occ: -0.5364-0.3775i 142 a1/2:1      0.3607-0.4294i 141 a1/2:1     -0.2223+0.2720i 129 a1/2:1      0.0014+0.3171i 130 a1/2:1      0.0958+0.0130i 133 a1/2:1      0.1032+0.0000i 134 a1/2:1      0.0724+0.0085i 132 a1/2:1     -0.0778 0.0000i 131 a1/2:1   
           virt: -0.4044+0.5030i 147 a1/2:1     -0.2558-0.6373i 148 a1/2:1      0.1858+0.0599i 143 a1/2:1      0.0435+0.1611i 144 a1/2:1     -0.0190+0.1185i 151 a1/2:1      0.1227+0.0586i 152 a1/2:1      0.0318+0.0806i 150 a1/2:1     -0.0316+0.0670i 149 a1/2:1   
          NTO weight: 0.4650
            occ: -0.3897+0.4032i 142 a1/2:1      0.4310+0.4944i 141 a1/2:1     -0.1296+0.2895i 129 a1/2:1     -0.0932-0.3387i 130 a1/2:1     -0.1023-0.0138i 133 a1/2:1      0.0966+0.0000i 134 a1/2:1     -0.0773-0.0090i 132 a1/2:1     -0.0729 0.0000i 131 a1/2:1   
           virt: -0.3401+0.3423i 147 a1/2:1      0.3728+0.7320i 148 a1/2:1      0.0723-0.1434i 143 a1/2:1     -0.1867+0.0204i 144 a1/2:1     -0.0644-0.0402i 151 a1/2:1      0.0135-0.1153i 152 a1/2:1      0.0696-0.0156i 150 a1/2:1     -0.0690-0.0468i 149 a1/2:1   
          NTO weight: 0.0113
            occ: -0.2555+0.2017i 142 a1/2:1     -0.3663+0.1132i 141 a1/2:1     -0.1170-0.1438i 129 a1/2:1     -0.7181+0.3483i 130 a1/2:1      0.0507+0.2010i 133 a1/2:1      0.0726+0.0000i 134 a1/2:1      0.0410+0.1509i 132 a1/2:1     -0.0548 0.0000i 131 a1/2:1   
           virt: -0.1786+0.6857i 147 a1/2:1     -0.3408+0.1068i 148 a1/2:1      0.1921-0.2801i 143 a1/2:1      0.1214-0.3811i 144 a1/2:1      0.1324-0.0939i 151 a1/2:1     -0.1069+0.0543i 152 a1/2:1      0.1502-0.0131i 150 a1/2:1      0.1506-0.0939i 149 a1/2:1   
          NTO weight: 0.0113
            occ: -0.3769+0.0707i 142 a1/2:1      0.3201+0.0594i 141 a1/2:1      0.3735-0.7053i 129 a1/2:1      0.1396+0.1220i 130 a1/2:1      0.0178+0.0705i 133 a1/2:1     -0.2073-0.0000i 134 a1/2:1      0.0144+0.0529i 132 a1/2:1      0.1563+0.0000i 131 a1/2:1   
           virt: -0.9426+0.0423i 147 a1/2:1     -0.1746+0.0116i 148 a1/2:1      0.1261-0.0668i 143 a1/2:1     -0.0862+0.0851i 144 a1/2:1     -0.1495-0.0687i 151 a1/2:1      0.0937-0.0355i 152 a1/2:1      0.0585+0.0244i 150 a1/2:1     -0.0536+0.0040i 149 a1/2:1   


    14: 142 a1/2   -> 148 a1/2      0.1652
    14: 141 a1/2   -> 147 a1/2      0.1652
    14: 142 a1/2   -> 147 a1/2      0.1159
    14: 141 a1/2   -> 148 a1/2      0.1159
    14: 130 a1/2   -> 147 a1/2      0.0930
    14: 129 a1/2   -> 148 a1/2      0.0930
    14: 142 a1/2   -> 149 a1/2      0.0341
    14: 141 a1/2   -> 150 a1/2      0.0341
    14: 141 a1/2   -> 143 a1/2      0.0221
    14: 142 a1/2   -> 144 a1/2      0.0221
    14: 129 a1/2   -> 149 a1/2      0.0141
    14: 130 a1/2   -> 150 a1/2      0.0141
    14: 141 a1/2   -> 152 a1/2      0.0098
    14: 142 a1/2   -> 151 a1/2      0.0098
    14: 133 a1/2   -> 147 a1/2      0.0096
    14: 134 a1/2   -> 148 a1/2      0.0096
    14: 132 a1/2   -> 147 a1/2      0.0056
    14: 131 a1/2   -> 148 a1/2      0.0056
    14: 129 a1/2   -> 152 a1/2      0.0031
    14: 130 a1/2   -> 151 a1/2      0.0031
  
          NTO weight: 0.4588
            occ: -0.7989-0.1828i 142 a1/2:1      0.1791-0.2162i 141 a1/2:1      0.1873+0.1569i 130 a1/2:1     -0.2204+0.3366i 129 a1/2:1      0.0586-0.0428i 133 a1/2:1      0.1114-0.0000i 134 a1/2:1      0.0441-0.0334i 132 a1/2:1     -0.0850 0.0000i 131 a1/2:1   
           virt:  0.6604+0.2357i 148 a1/2:1     -0.3172-0.4904i 147 a1/2:1      0.2046+0.1292i 149 a1/2:1      0.1087+0.0184i 150 a1/2:1      0.0773-0.0154i 143 a1/2:1      0.2273+0.0363i 144 a1/2:1     -0.0563+0.0557i 152 a1/2:1     -0.1055-0.1413i 151 a1/2:1   
          NTO weight: 0.4588
            occ:  0.0027-0.2807i 142 a1/2:1     -0.7282-0.3760i 141 a1/2:1      0.3222+0.2409i 130 a1/2:1      0.1224-0.2115i 129 a1/2:1      0.0899-0.0657i 133 a1/2:1     -0.0725+0.0000i 134 a1/2:1      0.0677-0.0513i 132 a1/2:1      0.0553+0.0000i 131 a1/2:1   
           virt: -0.3329-0.1619i 148 a1/2:1     -0.4036-0.7145i 147 a1/2:1     -0.0593+0.1157i 149 a1/2:1      0.1577-0.2887i 150 a1/2:1     -0.0808-0.1849i 143 a1/2:1      0.0039+0.0690i 144 a1/2:1      0.0646+0.0964i 152 a1/2:1      0.0172-0.0720i 151 a1/2:1   
          NTO weight: 0.0119
            occ: -0.2861-0.0012i 142 a1/2:1     -0.3954+0.0368i 141 a1/2:1     -0.8267+0.0683i 130 a1/2:1      0.0144+0.0933i 129 a1/2:1     -0.0228+0.1582i 133 a1/2:1     -0.1208+0.0000i 134 a1/2:1     -0.0152+0.1210i 132 a1/2:1      0.0921+0.0000i 131 a1/2:1   
           virt: -0.3905-0.3339i 148 a1/2:1     -0.1539-0.2574i 147 a1/2:1      0.2948+0.1763i 149 a1/2:1      0.0461+0.1964i 150 a1/2:1     -0.3942-0.2638i 143 a1/2:1      0.3410-0.0213i 144 a1/2:1      0.2983+0.1902i 152 a1/2:1      0.1309+0.0582i 151 a1/2:1   
          NTO weight: 0.0119
            occ: -0.3971+0.0010i 142 a1/2:1      0.2847-0.0284i 141 a1/2:1     -0.0791-0.0516i 130 a1/2:1      0.4032-0.7249i 129 a1/2:1      0.0172-0.1195i 133 a1/2:1     -0.1598+0.0000i 134 a1/2:1      0.0115-0.0914i 132 a1/2:1      0.1220+0.0000i 131 a1/2:1   
           virt:  0.3407+0.8408i 148 a1/2:1      0.0321+0.0519i 147 a1/2:1      0.0990+0.3077i 149 a1/2:1     -0.0002+0.1358i 150 a1/2:1      0.0776+0.0512i 143 a1/2:1      0.1287-0.0089i 144 a1/2:1     -0.0476-0.1301i 152 a1/2:1     -0.0651-0.0403i 151 a1/2:1   


    15: 140 a1/2   -> 143 a1/2      0.2558
    15: 139 a1/2   -> 144 a1/2      0.2557
    15: 138 a1/2   -> 143 a1/2      0.0542
    15: 137 a1/2   -> 144 a1/2      0.0541
    15: 133 a1/2   -> 143 a1/2      0.0501
    15: 134 a1/2   -> 144 a1/2      0.0501
    15: 135 a1/2   -> 143 a1/2      0.0445
    15: 136 a1/2   -> 144 a1/2      0.0444
    15: 139 a1/2   -> 143 a1/2      0.0420
    15: 140 a1/2   -> 144 a1/2      0.0419
    15: 137 a1/2   -> 143 a1/2      0.0126
    15: 138 a1/2   -> 144 a1/2      0.0126
    15: 134 a1/2   -> 143 a1/2      0.0095
    15: 133 a1/2   -> 144 a1/2      0.0095
    15: 128 a1/2   -> 143 a1/2      0.0081
    15: 127 a1/2   -> 144 a1/2      0.0081
    15: 132 a1/2   -> 143 a1/2      0.0027
    15: 131 a1/2   -> 144 a1/2      0.0027
    15: 136 a1/2   -> 143 a1/2      0.0016
    15: 135 a1/2   -> 144 a1/2      0.0016
  
          NTO weight: 0.4810
            occ:  0.4724+0.3686i 140 a1/2:1     -0.0049-0.5100i 139 a1/2:1      0.2083+0.1697i 138 a1/2:1      0.0882-0.2425i 137 a1/2:1     -0.2139+0.1520i 133 a1/2:1      0.2236+0.0710i 134 a1/2:1     -0.1714-0.2064i 135 a1/2:1     -0.1514-0.0289i 136 a1/2:1     -0.0986+0.0709i 128 a1/2:1      0.0452+0.0000i 127 a1/2:1      0.0520-0.0471i 132 a1/2:1      0.0261+0.0000i 131 a1/2:1   
           virt:  0.3039+0.6060i 143 a1/2:1     -0.6455+0.3517i 144 a1/2:1   
          NTO weight: 0.4806
            occ:  0.4910+0.1378i 140 a1/2:1      0.2326+0.5522i 139 a1/2:1      0.2502+0.0633i 138 a1/2:1      0.0233+0.2677i 137 a1/2:1     -0.1216+0.2006i 133 a1/2:1     -0.2611+0.0264i 134 a1/2:1     -0.1228-0.0931i 135 a1/2:1      0.2681-0.0107i 136 a1/2:1     -0.0367+0.0264i 128 a1/2:1     -0.1214-0.0000i 127 a1/2:1      0.0193-0.0175i 132 a1/2:1     -0.0701 0.0000i 131 a1/2:1   
           virt:  0.8502+0.1485i 143 a1/2:1     -0.1420-0.4848i 144 a1/2:1   


    16: 140 a1/2   -> 143 a1/2      0.2740
    16: 139 a1/2   -> 144 a1/2      0.2738
    16: 139 a1/2   -> 143 a1/2      0.1029
    16: 140 a1/2   -> 144 a1/2      0.1028
    16: 133 a1/2   -> 143 a1/2      0.0268
    16: 134 a1/2   -> 144 a1/2      0.0268
    16: 137 a1/2   -> 144 a1/2      0.0165
    16: 138 a1/2   -> 143 a1/2      0.0165
    16: 142 a1/2   -> 150 a1/2      0.0119
    16: 141 a1/2   -> 149 a1/2      0.0119
    16: 135 a1/2   -> 143 a1/2      0.0113
    16: 136 a1/2   -> 144 a1/2      0.0113
    16: 136 a1/2   -> 143 a1/2      0.0098
    16: 135 a1/2   -> 144 a1/2      0.0098
    16: 134 a1/2   -> 143 a1/2      0.0089
    16: 133 a1/2   -> 144 a1/2      0.0089
    16: 137 a1/2   -> 143 a1/2      0.0046
    16: 138 a1/2   -> 144 a1/2      0.0046
    16: 142 a1/2   -> 145 a1/2      0.0041
    16: 141 a1/2   -> 146 a1/2      0.0041
  
          NTO weight: 0.4550
            occ:  0.4737-0.3954i 140 a1/2:1      0.1245+0.6576i 139 a1/2:1      0.0741+0.1790i 133 a1/2:1     -0.2008-0.0276i 134 a1/2:1     -0.0288+0.1488i 137 a1/2:1      0.1218-0.0920i 138 a1/2:1     -0.1014+0.0711i 135 a1/2:1      0.1764 0.0000i 136 a1/2:1   
           virt:  0.1517-0.2155i 143 a1/2:1     -0.2488+0.9320i 144 a1/2:1   
          NTO weight: 0.4542
            occ: -0.3624+0.5628i 140 a1/2:1      0.2906+0.5443i 139 a1/2:1     -0.1358-0.1504i 133 a1/2:1     -0.1897+0.0394i 134 a1/2:1      0.0312+0.1495i 137 a1/2:1     -0.0760+0.1309i 138 a1/2:1      0.1443-0.1013i 135 a1/2:1      0.1239 0.0000i 136 a1/2:1   
           virt: -0.5660+0.8077i 143 a1/2:1     -0.0639+0.1522i 144 a1/2:1   
          NTO weight: 0.0160
            occ:  0.9094+0.4159i 142 a1/2:1   
           virt: -0.2154-0.8366i 150 a1/2:1      0.4565+0.2128i 145 a1/2:1   
          NTO weight: 0.0160
            occ:  0.8771+0.4804i 141 a1/2:1   
           virt:  0.7356+0.4532i 149 a1/2:1     -0.2564+0.4334i 146 a1/2:1   
 

 All SPIN-POLARIZED excitation energies

 no.     E/a.u.        E/eV      f           tau/s        Symmetry
 ------------------------------------------------------------------
   1:     0.08066      2.19500   0.9936E-05   0.4814E-03  A           
   2:     0.08131      2.21267   0.1534E-03   0.3069E-04  A           
   3:     0.08419      2.29095   0.1177E-13               A           
   4:     0.08435      2.29535   0.1186E-04   0.3687E-03  A           
   5:     0.08575      2.33347   0.3363E-13               A           
   6:     0.08610      2.34280   0.3970E-05   0.1058E-02  A           
   7:     0.09283      2.52607   0.1304E-02   0.2769E-05  A           
   8:     0.09459      2.57399   0.5730E-05   0.6071E-03  A           
   9:     0.10912      2.96927   0.2652E-13               A           
  10:     0.10959      2.98200   0.1902E-04   0.1362E-03  A           
  11:     0.11050      3.00682   0.1618E-05   0.1576E-02  A           
  12:     0.11054      3.00806   0.5154E-04   0.4941E-04  A           
  13:     0.11765      3.20128   0.8519E-04   0.2640E-04  A           
  14:     0.11871      3.23039   0.3880E-13               A           
  15:     0.12660      3.44493   0.5289E-10               A           
  16:     0.12781      3.47778   0.5605E-07   0.3399E-01  A           

 tau: electric dipole radiative lifetime (in seconds)

 Unrelaxed approximate excited state dipole moments

 no.       E/eV     Excited state dipole moment (Debye)   Symmetry
 ------------------------------------------------------------------
   1:      2.19500    -0.00001     3.18138     0.00000    A
   2:      2.21267    -0.00001     3.13072    -0.00000    A
   3:      2.29095    -0.00001     3.25883     0.00000    A
   4:      2.29535    -0.00001     3.31118     0.00000    A
   5:      2.33347    -0.00001     3.36660     0.00000    A
   6:      2.34280    -0.00001     3.30753    -0.00000    A
   7:      2.52607    -0.00001     3.41422     0.00000    A
   8:      2.57399    -0.00001     3.36326    -0.00001    A
   9:      2.96927    -0.00001     3.47104     0.00000    A
  10:      2.98200    -0.00001     3.47278     0.00000    A
  11:      3.00682    -0.00001     2.95253     0.00000    A
  12:      3.00806    -0.00001     2.95795    -0.00006    A
  13:      3.20128    -0.00004     2.38591     0.00006    A
  14:      3.23039    -0.00001     2.38218    -0.00000    A
  15:      3.44493    -0.00001    -0.21347    -0.00003    A
  16:      3.47778    -0.00006    -0.32283     0.00058    A


 Normal termination of EXCITATION program part





 =======================================================================
 Electrostatic potential at the Nuclei due to electrons and other nuclei
 =======================================================================
  
         Atom                  Potential
         ----                  ---------
     1)   U                 807.57967644
     2)   O                  22.34096867
     3)   O                  22.34096970
     4)   Cl                 64.88953184
     5)   Cl                 64.88953166
 Mulliken charges used for AMS results%charges...


    =====================
     CALCULATION RESULTS
    =====================

Energy (hartree)           -93.54514706


--------------
Atomic charges
--------------
  Index   Atom    Charge
      1      U    1.8042
      2      O   -0.5644
      3      O   -0.5644
      4     Cl   -0.3377
      5     Cl   -0.3377


Dipole moment vector    (Debye):    -0.00000513    4.97205911    0.00000053
              magnitude (Debye):     4.97205911


AMS application finished. Exiting.
NORMAL TERMINATION
     Total cpu time:   29918.66
  Total system time:    5026.15
 Total elapsed time:   34940.11
