

 Parallel Execution: Process Information
 ==============================================================================
 Rank   Node Name                              NodeID   MyNodeRank  NodeMaster
    0   u-0-4.local                               0          0          0
    1   u-0-4.local                               0          1         -1
    2   u-0-4.local                               1          0          1
    3   u-0-4.local                               1          1         -1
    4   u-0-4.local                               2          0          2
    5   u-0-4.local                               2          1         -1
    6   u-0-4.local                               3          0          3
    7   u-0-4.local                               3          1         -1
 ==============================================================================


May use up to 31228MB of RAM as shared memory on node 0
May use up to 31250MB of RAM as shared memory on node 1
May use up to 31250MB of RAM as shared memory on node 2
May use up to 31250MB of RAM as shared memory on node 3

 *******************************************************************************
 *                                                                             *
 *  --------------------------------                                           *
 *   Amsterdam Modeling Suite (AMS)              2021.106                      *
 *  --------------------------------                                           *
 *                                               r99350 2021-12-03             *
 *                                                                             *
 *                                                                             *
 *                              =================                              *
 *                              |               |                              *
 *                              |     A M S     |                              *
 *                              |               |                              *
 *                              =================                              *
 *                                                                             *
 *                                                                             *
 *   Online information and documentation:  https://www.scm.com/support/       *
 *   E-mail:  support@scm.com   info@scm.com                                   *
 *                                                                             *
 *   Scientific publications using AMS results must be properly referenced     *
 *   See the User Manuals (or the web site) for recommended citations          *
 *   The terms and conditions of the End User License Agreement apply to       *
 *   the use of AMS, https://www.scm.com/license-terms/                        *
 *                                                                             *
 **********************  x86_64_linux_intel / intelmpi  ************************
 
 Licensed to: Dr. Val?rie Vallet / Laboratoire PhLAM UMR 8523 / Villeneuve d'Ascq Cedex / FRANCE 2023-01-20 17:43:01
 SCM User ID: u10325
  
 AMS 2021.106  RunTime: Jan25-2023 12:36:14  ShM Nodes: 4  Procs: 8

 AMS jobname: abs-uo2_2cl.tddft-camb3lyp.SR
 AMS jobid  : 1685765662

 Start   directory: /home/vallet/Bent-Uranyl/uo2_2cl/bent/geom-pbe0-d3-gp/ams-absorption-emission/fullkernel/
 Results directory: /home/vallet/Bent-Uranyl/uo2_2cl/bent/geom-pbe0-d3-gp/ams-absorption-emission/fullkernel/abs-uo2_2cl.tddft-camb3lyp.SR.results/
 Scratch directory: /state/partition2/vallet/923101.phlam-s-sakura/amstmp_abs-uo2_2cl.tddft-camb3lyp.SR_kid0.1685765662/


 Communication costs MPI_COMM_WORLD:      2.810 usec per message,   0.0089 usec per 8-byte item
 Communication costs for intra-node:      0.515 usec per message,   0.0024 usec per 8-byte item

 RNG seed: -529488589 1776793856 1608504226 1376749835 659906143 1026103250 -460119560 597255406



                      ************************************************************************
                      *  ADF 2021.106  RunTime: Jan25-2023 12:36:15  ShM Nodes: 4  Procs: 8  *
                      ************************************************************************
  
       ****************************
       * SINGLE POINT CALCULATION *
       ****************************
 
--------
Geometry
--------
Formula: Cl2O2U
Atoms
  Index Symbol   x (angstrom)   y (angstrom)   z (angstrom)
      1      U     0.00000000     0.24857300     0.00000000
      2      O    -1.72161300     0.45005400     0.00000000
      3      O     1.72161300     0.45005400     0.00000000
      4     Cl     0.00000000    -1.22183600    -2.03057600
      5     Cl     0.00000000    -1.22183600     2.03057600
 
Total System Charge             0.00000
Bonding info available!
 
 
----------------
ADF Engine Input
----------------
 
 Basis
 Type TZ2P
 Core None
 End
 XC
 libxc CAM-B3LYP
 End
 Symmetry NOSYM
 Excitations
 Lowest 16
 NTO Yes
 Davidson
 End
 FullKernel Yes
 End
 

 Title: *** (NO TITLE) ***

 *** adf ***



 ===========================
 A T T A C H E D   F I L E S
 ===========================
  



 ===============================
 M O D E L   P A R A M E T E R S
 ===============================
  
 Range separated functional parameters:
 RANGESEP OMEGA=    0.330000 ALPHA=    0.190000 BETA=    0.460000 ERF-LONGRANGE 
                                                                                
   
 DENSITY FUNCTIONAL POTENTIAL (scf)

   *** Range Separated Functional ***

 Regions:
   LibXC version: 5. 1. 2
   Exchange-correlation  T T T T F F F T T F F F F F F F F F F F F
   HF parameter =   0.65000000
   LIBXC GAMMA=    0.330000 ALPHA=    0.650000 BETA=   -0.460000
   CAM version of B3LYP (Hybrid GGA)
[1] T. Yanai, D. P. Tew, and N. C. Handy, Chem. Phys. Lett. 393, 51 (2004)

 SPIN  (restricted / unrestr.)
    Molecule:                          Restricted                               
    Fragments:                         Restricted                               

 OTHER ASPECTS
    Relativistic Corrections:          scalar (ZORA,MAPA)                       

    Nuclear Charge Density Model:      Point Charge Nuclei                      
    Core Treatment:                    Frozen Orbital(s)                        

    Hyperfine or Zeeman Interaction:   ---                                      
 WARNING: Atom coordinates do not satisfy full symmetry (probably due to orienta
 tion).


 Fragment File(s)
 ----------------
 U:
         file : /home/vallet/Bent-Uranyl/uo2_2cl/bent/geom-pbe0-d3-gp/ams-absorption-emission/fullkernel/abs-uo2_2cl.tddft-camb3lyp.SR.results/t21.62EFEEDA.U
         jobid: 0
         title: Uranium (TZ2P, all electron)
 O:
         file : /home/vallet/Bent-Uranyl/uo2_2cl/bent/geom-pbe0-d3-gp/ams-absorption-emission/fullkernel/abs-uo2_2cl.tddft-camb3lyp.SR.results/t21.145967BA.O
         jobid: 0
         title: Oxygen (TZ2P)
 Cl:
         file : /home/vallet/Bent-Uranyl/uo2_2cl/bent/geom-pbe0-d3-gp/ams-absorption-emission/fullkernel/abs-uo2_2cl.tddft-camb3lyp.SR.results/t21.4C5367B7.Cl
         jobid: 0
         title: Chlorine (TZ2P)



 ===============
 G E O M E T R Y  ***  3D  Molecule  ***
 ===============
  

 ATOMS
 =====                            X Y Z                    CHARGE
                                (Angstrom)             Nucl     +Core       At.Mass
                       --------------------------    ----------------       -------
    1  U               0.0000    0.2486    0.0000     92.00     92.00      238.0508
    2  O              -1.7216    0.4501    0.0000      8.00      8.00       15.9949
    3  O               1.7216    0.4501    0.0000      8.00      8.00       15.9949
    4  Cl              0.0000   -1.2218   -2.0306     17.00     17.00       34.9689
    5  Cl              0.0000   -1.2218    2.0306     17.00     17.00       34.9689


 FRAGMENTS
 =========                                     Atoms in this Fragment     Cart. coord.s (Angstrom)
                                               -------------------------------------------------------
    1  U                                                 1  U            0.0000    0.2486    0.0000
    2  O                                                 2  O           -1.7216    0.4501    0.0000
    3  O                                                 3  O            1.7216    0.4501    0.0000
    4  Cl                                                4  Cl           0.0000   -1.2218   -2.0306
    5  Cl                                                5  Cl           0.0000   -1.2218    2.0306


 Interatomic Distance Matrix (Angstrom)
 --------------------------------------

   1)     0.000
   2)     1.733   0.000
   3)     1.733   3.443   0.000
   4)     2.507   3.144   3.144   0.000
   5)     2.507   3.144   3.144   4.061   0.000

 Min. Distance =    1.7334
 Max. Distance =    4.0612



 =====================================
 S Y M M E T R Y ,   E L E C T R O N S
 =====================================
  
 Symmetry: NOSYM

 Irreducible Representations, including subspecies
 -------------------------------------------------
 A

 Symmetry is NOT used when fitting density


 Configuration of Valence Electrons
 ==================================
 ( determined in the SCF procedure )

 Total:   142

 Net Charge: 0 (Nuclei minus Electrons)

 Aufbau principle for MO occupations will be applied through SCF cycle no.     150
 Thereafter, the program will assign electrons to MOs that are spatially
 similar to the occupied MOs in a "reference" cycle ("KeepOrbitals").
 The reference cycle is always the PREVIOUS cycle: it will evolve with
 the SCF procedure.
1
 ***************************************************************************************************



                                      ****************************************
                                      *  B U I L D : (Fragments, Functions)  *
                                      ****************************************
  



 =======
 S F O s  ***  (Symmetrized Fragment Orbitals)  ***
 =======
  
 SFOs are linear combinations of (valence) Fragment Orbitals (FOs), such that the SFOs transform as the
 irreducible representations of the (molecular) symmetry group. Each SFO is therefore characterized by
 an irrep of the molecule and by a few (or only one) generating FOs.
 The SFOs constitute a symmetry-adapted basis for the Fock matrix. The MO eigenvector coefficients in
 this basis provide a direct interpretation of the MOs in terms of Frontier Orbital Theory.

 The SFOs are combined with auxiliary Core Functions (CFs) to ensure orthogonalization on the (frozen)
 Core Orbitals (COs). The Core-orthogonalized SFOs (CSFOs) constitute the true Fock basis.

 The FOs, and hence also the (C)SFOs are combinations of the elementary basis functions (BAS). The basis
 functions that participate in the description of the SFOs depend on the irrep. The indices of the
 involved functions are printed below for each irrep.
 (The complete list of primitive basis functions is printed in another section)

 Total nr. of (C)SFOs (summation over all irreps) :   255

 NOTE: a (C)SFO that is defined as a combination of more than one FO is usually NOT normalized.



                                       === A ===
 Nr. of SFOs :  255
 Cartesian basis functions that participate in this irrep (total number =   295) :
      1     2     3     4     5     6     7     8     9    10
     11    12    13    14    15    16    17    20    23    26
     29    32    35    38    41    44    47    50   157    18
     21    24    27    30    33    36    39    42    45    48
     51   158    19    22    25    28    31    34    37    40
     43    46    49    52   159    53    59    65    71    77
     83    89    95   101    54    60    66    72    78    84
     90    96   102    55    61    67    73    79    85    91
     97   103    56    62    68    74    80    86    92    98
    104    57    63    69    75    81    87    93    99   105
     58    64    70    76    82    88    94   100   106   107
    117   127   137   147   108   118   128   138   148   109
    119   129   139   149   110   120   130   140   150   111
    121   131   141   151   112   122   132   142   152   113
    123   133   143   153   114   124   134   144   154   115
    125   135   145   155   116   126   136   146   156   160
    161   162   163   164   165   168   171   166   169   172
    167   170   173   174   175   176   177   178   179   180
    181   182   183   184   185   186   187   188   189   190
    191   192   193   194   195   198   201   196   199   202
    197   200   203   204   205   206   207   208   209   210
    211   212   213   214   215   216   217   218   219   220
    221   222   223   230   231   232   224   227   233   236
    239   225   228   234   237   240   226   229   235   238
    241   242   243   244   245   246   247   248   249   250
    251   252   253   254   255   256   257   258   259   260
    261   268   269   270   262   265   271   274   277   263
    266   272   275   278   264   267   273   276   279   280
    281   282   283   284   285   286   287   288   289   290
    291   292   293   294   295

    SFO  (index         Fragment          Generating    Expansion in Fragment Orbitals
  indx  incl.CFs)   Occup   Orb.Energy   FragmentType  Coeff.   Orbital     on Fragment
 --------------------------------------------------------------------------------------
     1       1      2.000   -4251.353 au  U             1.00      1 S               1
                        ( -115685.196 eV)
     2       2      2.000    -796.441 au  U             1.00      2 S               1
                        (  -21672.268 eV)
     3       3      2.000    -201.892 au  U             1.00      3 S               1
                        (   -5493.749 eV)
     4       4      2.000     -51.876 au  U             1.00      4 S               1
                        (   -1411.630 eV)
     5       5      2.000     -11.729 au  U             1.00      5 S               1
                        (    -319.169 eV)
     6       6      2.000      -1.945 au  U             1.00      6 S               1
                        (     -52.927 eV)
     7       7      2.000      -0.213 au  U             1.00      7 S               1
                        (      -5.803 eV)
     8       8       --         0.048 au  U             1.00      8 S               1
                        (       1.304 eV)
     9       9       --         0.365 au  U             1.00      9 S               1
                        (       9.926 eV)
    10      10       --         1.710 au  U             1.00     10 S               1
                        (      46.524 eV)
    11      11       --         8.839 au  U             1.00     11 S               1
                        (     240.518 eV)
    12      12       --        47.595 au  U             1.00     12 S               1
                        (    1295.126 eV)
    13      13       --      1081.390 au  U             1.00     13 S               1
                        (   29426.119 eV)
    14      14       --      5574.427 au  U             1.00     14 S               1
                        (  151687.880 eV)
    15      15       --     16665.542 au  U             1.00     15 S               1
                        (  453492.485 eV)
    16      16       --     47306.872 au  U             1.00     16 S               1
                        ( 1287285.481 eV)
    17      17      2.000    -662.462 au  U             1.00      1 P:x             1
                        (  -18026.515 eV)
    18      18      2.000    -164.599 au  U             1.00      2 P:x             1
                        (   -4478.961 eV)
    19      19      2.000     -39.673 au  U             1.00      3 P:x             1
                        (   -1079.554 eV)
    20      20      2.000      -7.932 au  U             1.00      4 P:x             1
                        (    -215.835 eV)
    21      21      2.000      -0.994 au  U             1.00      5 P:x             1
                        (     -27.045 eV)
    22      22       --         0.020 au  U             1.00      6 P:x             1
                        (       0.556 eV)
    23      23       --         0.440 au  U             1.00      7 P:x             1
                        (      11.979 eV)
    24      24       --         1.884 au  U             1.00      8 P:x             1
                        (      51.264 eV)
    25      25       --         7.651 au  U             1.00      9 P:x             1
                        (     208.183 eV)
    26      26       --        36.626 au  U             1.00     10 P:x             1
                        (     996.655 eV)
    27      27       --       183.078 au  U             1.00     11 P:x             1
                        (    4981.805 eV)
    28      28       --      1551.559 au  U             1.00     12 P:x             1
                        (   42220.063 eV)
    29      29       --     11017.681 au  U             1.00     13 P:x             1
                        (  299806.354 eV)
    30      30      2.000    -662.462 au  U             1.00      1 P:y             1
                        (  -18026.515 eV)
    31      31      2.000    -164.599 au  U             1.00      2 P:y             1
                        (   -4478.961 eV)
    32      32      2.000     -39.673 au  U             1.00      3 P:y             1
                        (   -1079.554 eV)
    33      33      2.000      -7.932 au  U             1.00      4 P:y             1
                        (    -215.835 eV)
    34      34      2.000      -0.994 au  U             1.00      5 P:y             1
                        (     -27.045 eV)
    35      35       --         0.020 au  U             1.00      6 P:y             1
                        (       0.556 eV)
    36      36       --         0.440 au  U             1.00      7 P:y             1
                        (      11.979 eV)
    37      37       --         1.884 au  U             1.00      8 P:y             1
                        (      51.264 eV)
    38      38       --         7.651 au  U             1.00      9 P:y             1
                        (     208.183 eV)
    39      39       --        36.626 au  U             1.00     10 P:y             1
                        (     996.655 eV)
    40      40       --       183.078 au  U             1.00     11 P:y             1
                        (    4981.805 eV)
    41      41       --      1551.559 au  U             1.00     12 P:y             1
                        (   42220.063 eV)
    42      42       --     11017.681 au  U             1.00     13 P:y             1
                        (  299806.354 eV)
    43      43      2.000    -662.462 au  U             1.00      1 P:z             1
                        (  -18026.515 eV)
    44      44      2.000    -164.599 au  U             1.00      2 P:z             1
                        (   -4478.961 eV)
    45      45      2.000     -39.673 au  U             1.00      3 P:z             1
                        (   -1079.554 eV)
    46      46      2.000      -7.932 au  U             1.00      4 P:z             1
                        (    -215.835 eV)
    47      47      2.000      -0.994 au  U             1.00      5 P:z             1
                        (     -27.045 eV)
    48      48       --         0.020 au  U             1.00      6 P:z             1
                        (       0.556 eV)
    49      49       --         0.440 au  U             1.00      7 P:z             1
                        (      11.979 eV)
    50      50       --         1.884 au  U             1.00      8 P:z             1
                        (      51.264 eV)
    51      51       --         7.651 au  U             1.00      9 P:z             1
                        (     208.183 eV)
    52      52       --        36.626 au  U             1.00     10 P:z             1
                        (     996.655 eV)
    53      53       --       183.078 au  U             1.00     11 P:z             1
                        (    4981.805 eV)
    54      54       --      1551.559 au  U             1.00     12 P:z             1
                        (   42220.063 eV)
    55      55       --     11017.681 au  U             1.00     13 P:z             1
                        (  299806.354 eV)
    56      56      2.000    -132.007 au  U             1.00      1 D:z2            1
                        (   -3592.098 eV)
    57      57      2.000     -27.274 au  U             1.00      2 D:z2            1
                        (    -742.171 eV)
    58      58      2.000      -3.863 au  U             1.00      3 D:z2            1
                        (    -105.123 eV)
    59      59      0.200      -0.032 au  U             1.00      4 D:z2            1
                        (      -0.878 eV)
    60      60       --         0.088 au  U             1.00      5 D:z2            1
                        (       2.389 eV)
    61      61       --         0.510 au  U             1.00      6 D:z2            1
                        (      13.866 eV)
    62      62       --         3.364 au  U             1.00      7 D:z2            1
                        (      91.549 eV)
    63      63       --        24.287 au  U             1.00      8 D:z2            1
                        (     660.870 eV)
    64      64       --       197.255 au  U             1.00      9 D:z2            1
                        (    5367.594 eV)
    65      65      2.000    -132.007 au  U             1.00      1 D:x2-y2         1
                        (   -3592.098 eV)
    66      66      2.000     -27.274 au  U             1.00      2 D:x2-y2         1
                        (    -742.171 eV)
    67      67      2.000      -3.863 au  U             1.00      3 D:x2-y2         1
                        (    -105.123 eV)
    68      68      0.200      -0.032 au  U             1.00      4 D:x2-y2         1
                        (      -0.878 eV)
    69      69       --         0.088 au  U             1.00      5 D:x2-y2         1
                        (       2.389 eV)
    70      70       --         0.510 au  U             1.00      6 D:x2-y2         1
                        (      13.866 eV)
    71      71       --         3.364 au  U             1.00      7 D:x2-y2         1
                        (      91.549 eV)
    72      72       --        24.287 au  U             1.00      8 D:x2-y2         1
                        (     660.870 eV)
    73      73       --       197.255 au  U             1.00      9 D:x2-y2         1
                        (    5367.594 eV)
    74      74      2.000    -132.007 au  U             1.00      1 D:xy            1
                        (   -3592.098 eV)
    75      75      2.000     -27.274 au  U             1.00      2 D:xy            1
                        (    -742.171 eV)
    76      76      2.000      -3.863 au  U             1.00      3 D:xy            1
                        (    -105.123 eV)
    77      77      0.200      -0.032 au  U             1.00      4 D:xy            1
                        (      -0.878 eV)
    78      78       --         0.088 au  U             1.00      5 D:xy            1
                        (       2.389 eV)
    79      79       --         0.510 au  U             1.00      6 D:xy            1
                        (      13.866 eV)
    80      80       --         3.364 au  U             1.00      7 D:xy            1
                        (      91.549 eV)
    81      81       --        24.287 au  U             1.00      8 D:xy            1
                        (     660.870 eV)
    82      82       --       197.255 au  U             1.00      9 D:xy            1
                        (    5367.594 eV)
    83      83      2.000    -132.007 au  U             1.00      1 D:xz            1
                        (   -3592.098 eV)
    84      84      2.000     -27.274 au  U             1.00      2 D:xz            1
                        (    -742.171 eV)
    85      85      2.000      -3.863 au  U             1.00      3 D:xz            1
                        (    -105.123 eV)
    86      86      0.200      -0.032 au  U             1.00      4 D:xz            1
                        (      -0.878 eV)
    87      87       --         0.088 au  U             1.00      5 D:xz            1
                        (       2.389 eV)
    88      88       --         0.510 au  U             1.00      6 D:xz            1
                        (      13.866 eV)
    89      89       --         3.364 au  U             1.00      7 D:xz            1
                        (      91.549 eV)
    90      90       --        24.287 au  U             1.00      8 D:xz            1
                        (     660.870 eV)
    91      91       --       197.255 au  U             1.00      9 D:xz            1
                        (    5367.594 eV)
    92      92      2.000    -132.007 au  U             1.00      1 D:yz            1
                        (   -3592.098 eV)
    93      93      2.000     -27.274 au  U             1.00      2 D:yz            1
                        (    -742.171 eV)
    94      94      2.000      -3.863 au  U             1.00      3 D:yz            1
                        (    -105.123 eV)
    95      95      0.200      -0.032 au  U             1.00      4 D:yz            1
                        (      -0.878 eV)
    96      96       --         0.088 au  U             1.00      5 D:yz            1
                        (       2.389 eV)
    97      97       --         0.510 au  U             1.00      6 D:yz            1
                        (      13.866 eV)
    98      98       --         3.364 au  U             1.00      7 D:yz            1
                        (      91.549 eV)
    99      99       --        24.287 au  U             1.00      8 D:yz            1
                        (     660.870 eV)
   100     100       --       197.255 au  U             1.00      9 D:yz            1
                        (    5367.594 eV)
   101     101      2.000     -14.070 au  U             1.00      1 F:z3            1
                        (    -382.852 eV)
   102     102      0.429      -0.056 au  U             1.00      2 F:z3            1
                        (      -1.528 eV)
   103     103       --         0.379 au  U             1.00      3 F:z3            1
                        (      10.321 eV)
   104     104       --         2.236 au  U             1.00      4 F:z3            1
                        (      60.848 eV)
   105     105       --        21.518 au  U             1.00      5 F:z3            1
                        (     585.544 eV)
   106     106      2.000     -14.070 au  U             1.00      1 F:z             1
                        (    -382.852 eV)
   107     107      0.429      -0.056 au  U             1.00      2 F:z             1
                        (      -1.528 eV)
   108     108       --         0.379 au  U             1.00      3 F:z             1
                        (      10.321 eV)
   109     109       --         2.236 au  U             1.00      4 F:z             1
                        (      60.848 eV)
   110     110       --        21.518 au  U             1.00      5 F:z             1
                        (     585.544 eV)
   111     111      2.000     -14.070 au  U             1.00      1 F:xyz           1
                        (    -382.852 eV)
   112     112      0.429      -0.056 au  U             1.00      2 F:xyz           1
                        (      -1.528 eV)
   113     113       --         0.379 au  U             1.00      3 F:xyz           1
                        (      10.321 eV)
   114     114       --         2.236 au  U             1.00      4 F:xyz           1
                        (      60.848 eV)
   115     115       --        21.518 au  U             1.00      5 F:xyz           1
                        (     585.544 eV)
   116     116      2.000     -14.070 au  U             1.00      1 F:z2x           1
                        (    -382.852 eV)
   117     117      0.429      -0.056 au  U             1.00      2 F:z2x           1
                        (      -1.528 eV)
   118     118       --         0.379 au  U             1.00      3 F:z2x           1
                        (      10.321 eV)
   119     119       --         2.236 au  U             1.00      4 F:z2x           1
                        (      60.848 eV)
   120     120       --        21.518 au  U             1.00      5 F:z2x           1
                        (     585.544 eV)
   121     121      2.000     -14.070 au  U             1.00      1 F:z2y           1
                        (    -382.852 eV)
   122     122      0.429      -0.056 au  U             1.00      2 F:z2y           1
                        (      -1.528 eV)
   123     123       --         0.379 au  U             1.00      3 F:z2y           1
                        (      10.321 eV)
   124     124       --         2.236 au  U             1.00      4 F:z2y           1
                        (      60.848 eV)
   125     125       --        21.518 au  U             1.00      5 F:z2y           1
                        (     585.544 eV)
   126     126      2.000     -14.070 au  U             1.00      1 F:x             1
                        (    -382.852 eV)
   127     127      0.429      -0.056 au  U             1.00      2 F:x             1
                        (      -1.528 eV)
   128     128       --         0.379 au  U             1.00      3 F:x             1
                        (      10.321 eV)
   129     129       --         2.236 au  U             1.00      4 F:x             1
                        (      60.848 eV)
   130     130       --        21.518 au  U             1.00      5 F:x             1
                        (     585.544 eV)
   131     131      2.000     -14.070 au  U             1.00      1 F:y             1
                        (    -382.852 eV)
   132     132      0.429      -0.056 au  U             1.00      2 F:y             1
                        (      -1.528 eV)
   133     133       --         0.379 au  U             1.00      3 F:y             1
                        (      10.321 eV)
   134     134       --         2.236 au  U             1.00      4 F:y             1
                        (      60.848 eV)
   135     135       --        21.518 au  U             1.00      5 F:y             1
                        (     585.544 eV)
   136     136      2.000     -19.398 au  O             1.00      1 S               2
                        (    -527.846 eV)
   137     137      2.000      -1.055 au  O             1.00      2 S               2
                        (     -28.706 eV)
   138     138       --         0.898 au  O             1.00      3 S               2
                        (      24.442 eV)
   139     139       --        13.659 au  O             1.00      4 S               2
                        (     371.685 eV)
   140     140       --       122.205 au  O             1.00      5 S               2
                        (    3325.373 eV)
   141     141      1.333      -0.391 au  O             1.00      1 P:x             2
                        (     -10.628 eV)
   142     142       --         0.430 au  O             1.00      2 P:x             2
                        (      11.691 eV)
   143     143       --         3.994 au  O             1.00      3 P:x             2
                        (     108.695 eV)
   144     144      1.333      -0.391 au  O             1.00      1 P:y             2
                        (     -10.628 eV)
   145     145       --         0.430 au  O             1.00      2 P:y             2
                        (      11.691 eV)
   146     146       --         3.994 au  O             1.00      3 P:y             2
                        (     108.695 eV)
   147     147      1.333      -0.391 au  O             1.00      1 P:z             2
                        (     -10.628 eV)
   148     148       --         0.430 au  O             1.00      2 P:z             2
                        (      11.691 eV)
   149     149       --         3.994 au  O             1.00      3 P:z             2
                        (     108.695 eV)
   150     150       --         1.180 au  O             1.00      1 D:z2            2
                        (      32.112 eV)
   151     151       --         1.180 au  O             1.00      1 D:x2-y2         2
                        (      32.112 eV)
   152     152       --         1.180 au  O             1.00      1 D:xy            2
                        (      32.112 eV)
   153     153       --         1.180 au  O             1.00      1 D:xz            2
                        (      32.112 eV)
   154     154       --         1.180 au  O             1.00      1 D:yz            2
                        (      32.112 eV)
   155     155       --         3.501 au  O             1.00      1 F:z3            2
                        (      95.277 eV)
   156     156       --         3.501 au  O             1.00      1 F:z             2
                        (      95.277 eV)
   157     157       --         3.501 au  O             1.00      1 F:xyz           2
                        (      95.277 eV)
   158     158       --         3.501 au  O             1.00      1 F:z2x           2
                        (      95.277 eV)
   159     159       --         3.501 au  O             1.00      1 F:z2y           2
                        (      95.277 eV)
   160     160       --         3.501 au  O             1.00      1 F:x             2
                        (      95.277 eV)
   161     161       --         3.501 au  O             1.00      1 F:y             2
                        (      95.277 eV)
   162     162      2.000     -19.398 au  O             1.00      1 S               3
                        (    -527.846 eV)
   163     163      2.000      -1.055 au  O             1.00      2 S               3
                        (     -28.706 eV)
   164     164       --         0.898 au  O             1.00      3 S               3
                        (      24.442 eV)
   165     165       --        13.659 au  O             1.00      4 S               3
                        (     371.685 eV)
   166     166       --       122.205 au  O             1.00      5 S               3
                        (    3325.373 eV)
   167     167      1.333      -0.391 au  O             1.00      1 P:x             3
                        (     -10.628 eV)
   168     168       --         0.430 au  O             1.00      2 P:x             3
                        (      11.691 eV)
   169     169       --         3.994 au  O             1.00      3 P:x             3
                        (     108.695 eV)
   170     170      1.333      -0.391 au  O             1.00      1 P:y             3
                        (     -10.628 eV)
   171     171       --         0.430 au  O             1.00      2 P:y             3
                        (      11.691 eV)
   172     172       --         3.994 au  O             1.00      3 P:y             3
                        (     108.695 eV)
   173     173      1.333      -0.391 au  O             1.00      1 P:z             3
                        (     -10.628 eV)
   174     174       --         0.430 au  O             1.00      2 P:z             3
                        (      11.691 eV)
   175     175       --         3.994 au  O             1.00      3 P:z             3
                        (     108.695 eV)
   176     176       --         1.180 au  O             1.00      1 D:z2            3
                        (      32.112 eV)
   177     177       --         1.180 au  O             1.00      1 D:x2-y2         3
                        (      32.112 eV)
   178     178       --         1.180 au  O             1.00      1 D:xy            3
                        (      32.112 eV)
   179     179       --         1.180 au  O             1.00      1 D:xz            3
                        (      32.112 eV)
   180     180       --         1.180 au  O             1.00      1 D:yz            3
                        (      32.112 eV)
   181     181       --         3.501 au  O             1.00      1 F:z3            3
                        (      95.277 eV)
   182     182       --         3.501 au  O             1.00      1 F:z             3
                        (      95.277 eV)
   183     183       --         3.501 au  O             1.00      1 F:xyz           3
                        (      95.277 eV)
   184     184       --         3.501 au  O             1.00      1 F:z2x           3
                        (      95.277 eV)
   185     185       --         3.501 au  O             1.00      1 F:z2y           3
                        (      95.277 eV)
   186     186       --         3.501 au  O             1.00      1 F:x             3
                        (      95.277 eV)
   187     187       --         3.501 au  O             1.00      1 F:y             3
                        (      95.277 eV)
   188     188      2.000    -102.006 au  Cl            1.00      1 S               4
                        (   -2775.733 eV)
   189     189      2.000      -9.646 au  Cl            1.00      2 S               4
                        (    -262.473 eV)
   190     190      2.000      -0.914 au  Cl            1.00      3 S               4
                        (     -24.882 eV)
   191     191       --         0.270 au  Cl            1.00      4 S               4
                        (       7.338 eV)
   192     192       --         2.124 au  Cl            1.00      5 S               4
                        (      57.791 eV)
   193     193       --        12.863 au  Cl            1.00      6 S               4
                        (     350.012 eV)
   194     194       --       206.203 au  Cl            1.00      7 S               4
                        (    5611.064 eV)
   195     195      2.000      -7.339 au  Cl            1.00      1 P:x             4
                        (    -199.700 eV)
   196     196      1.667      -0.392 au  Cl            1.00      2 P:x             4
                        (     -10.673 eV)
   197     197       --         0.296 au  Cl            1.00      3 P:x             4
                        (       8.050 eV)
   198     198       --         2.241 au  Cl            1.00      4 P:x             4
                        (      60.977 eV)
   199     199       --        18.987 au  Cl            1.00      5 P:x             4
                        (     516.660 eV)
   200     200      2.000      -7.339 au  Cl            1.00      1 P:y             4
                        (    -199.700 eV)
   201     201      1.667      -0.392 au  Cl            1.00      2 P:y             4
                        (     -10.673 eV)
   202     202       --         0.296 au  Cl            1.00      3 P:y             4
                        (       8.050 eV)
   203     203       --         2.241 au  Cl            1.00      4 P:y             4
                        (      60.977 eV)
   204     204       --        18.987 au  Cl            1.00      5 P:y             4
                        (     516.660 eV)
   205     205      2.000      -7.339 au  Cl            1.00      1 P:z             4
                        (    -199.700 eV)
   206     206      1.667      -0.392 au  Cl            1.00      2 P:z             4
                        (     -10.673 eV)
   207     207       --         0.296 au  Cl            1.00      3 P:z             4
                        (       8.050 eV)
   208     208       --         2.241 au  Cl            1.00      4 P:z             4
                        (      60.977 eV)
   209     209       --        18.987 au  Cl            1.00      5 P:z             4
                        (     516.660 eV)
   210     210       --         0.498 au  Cl            1.00      1 D:z2            4
                        (      13.551 eV)
   211     211       --         0.498 au  Cl            1.00      1 D:x2-y2         4
                        (      13.551 eV)
   212     212       --         0.498 au  Cl            1.00      1 D:xy            4
                        (      13.551 eV)
   213     213       --         0.498 au  Cl            1.00      1 D:xz            4
                        (      13.551 eV)
   214     214       --         0.498 au  Cl            1.00      1 D:yz            4
                        (      13.551 eV)
   215     215       --         1.307 au  Cl            1.00      1 F:z3            4
                        (      35.555 eV)
   216     216       --         1.307 au  Cl            1.00      1 F:z             4
                        (      35.555 eV)
   217     217       --         1.307 au  Cl            1.00      1 F:xyz           4
                        (      35.555 eV)
   218     218       --         1.307 au  Cl            1.00      1 F:z2x           4
                        (      35.555 eV)
   219     219       --         1.307 au  Cl            1.00      1 F:z2y           4
                        (      35.555 eV)
   220     220       --         1.307 au  Cl            1.00      1 F:x             4
                        (      35.555 eV)
   221     221       --         1.307 au  Cl            1.00      1 F:y             4
                        (      35.555 eV)
   222     222      2.000    -102.006 au  Cl            1.00      1 S               5
                        (   -2775.733 eV)
   223     223      2.000      -9.646 au  Cl            1.00      2 S               5
                        (    -262.473 eV)
   224     224      2.000      -0.914 au  Cl            1.00      3 S               5
                        (     -24.882 eV)
   225     225       --         0.270 au  Cl            1.00      4 S               5
                        (       7.338 eV)
   226     226       --         2.124 au  Cl            1.00      5 S               5
                        (      57.791 eV)
   227     227       --        12.863 au  Cl            1.00      6 S               5
                        (     350.012 eV)
   228     228       --       206.203 au  Cl            1.00      7 S               5
                        (    5611.064 eV)
   229     229      2.000      -7.339 au  Cl            1.00      1 P:x             5
                        (    -199.700 eV)
   230     230      1.667      -0.392 au  Cl            1.00      2 P:x             5
                        (     -10.673 eV)
   231     231       --         0.296 au  Cl            1.00      3 P:x             5
                        (       8.050 eV)
   232     232       --         2.241 au  Cl            1.00      4 P:x             5
                        (      60.977 eV)
   233     233       --        18.987 au  Cl            1.00      5 P:x             5
                        (     516.660 eV)
   234     234      2.000      -7.339 au  Cl            1.00      1 P:y             5
                        (    -199.700 eV)
   235     235      1.667      -0.392 au  Cl            1.00      2 P:y             5
                        (     -10.673 eV)
   236     236       --         0.296 au  Cl            1.00      3 P:y             5
                        (       8.050 eV)
   237     237       --         2.241 au  Cl            1.00      4 P:y             5
                        (      60.977 eV)
   238     238       --        18.987 au  Cl            1.00      5 P:y             5
                        (     516.660 eV)
   239     239      2.000      -7.339 au  Cl            1.00      1 P:z             5
                        (    -199.700 eV)
   240     240      1.667      -0.392 au  Cl            1.00      2 P:z             5
                        (     -10.673 eV)
   241     241       --         0.296 au  Cl            1.00      3 P:z             5
                        (       8.050 eV)
   242     242       --         2.241 au  Cl            1.00      4 P:z             5
                        (      60.977 eV)
   243     243       --        18.987 au  Cl            1.00      5 P:z             5
                        (     516.660 eV)
   244     244       --         0.498 au  Cl            1.00      1 D:z2            5
                        (      13.551 eV)
   245     245       --         0.498 au  Cl            1.00      1 D:x2-y2         5
                        (      13.551 eV)
   246     246       --         0.498 au  Cl            1.00      1 D:xy            5
                        (      13.551 eV)
   247     247       --         0.498 au  Cl            1.00      1 D:xz            5
                        (      13.551 eV)
   248     248       --         0.498 au  Cl            1.00      1 D:yz            5
                        (      13.551 eV)
   249     249       --         1.307 au  Cl            1.00      1 F:z3            5
                        (      35.555 eV)
   250     250       --         1.307 au  Cl            1.00      1 F:z             5
                        (      35.555 eV)
   251     251       --         1.307 au  Cl            1.00      1 F:xyz           5
                        (      35.555 eV)
   252     252       --         1.307 au  Cl            1.00      1 F:z2x           5
                        (      35.555 eV)
   253     253       --         1.307 au  Cl            1.00      1 F:z2y           5
                        (      35.555 eV)
   254     254       --         1.307 au  Cl            1.00      1 F:x             5
                        (      35.555 eV)
   255     255       --         1.307 au  Cl            1.00      1 F:y             5
                        (      35.555 eV)



 ================================
 (Slater-type)  F U N C T I O N S  ***  (Basis and Fit)  ***
 ================================
  

 Atom Type    1  (U)
 ==============

 Valence Basis Sets:  43
 -----------------------
   1 S 1060.000000
   1 S  245.000000
   1 S  108.800000
   2 S  134.900000
   2 S   47.200000
   3 S   60.000000
   3 S   25.900000
   4 S   15.800000
   4 S   11.100000
   5 S   10.450000
   5 S    7.250000
   6 S    5.000000
   6 S    3.300000
   7 S    2.350000
   7 S    1.550000
   7 S    1.020000
   2 P  245.000000
   2 P   85.500000
   2 P   44.200000
   3 P   25.100000
   3 P   18.100000
   4 P   17.900000
   4 P   12.300000
   5 P    8.650000
   5 P    6.000000
   6 P    4.450000
   6 P    3.000000
   6 P    2.100000
   3 D   33.250000
   3 D   22.050000
   4 D   15.250000
   4 D   10.550000
   5 D    7.250000
   5 D    4.650000
   6 D    2.900000
   6 D    1.600000
   6 D    0.880000
   4 F   17.450000
   4 F    9.600000
   5 F    5.800000
   5 F    3.000000
   5 F    1.390000
   7 P    1.550000

 Charge Fitting Sets (for the computation of the Coulomb Potential):  87
 -----------------------------------------------------------------------
   1 S 2120.000000
   1 S 1594.965000
   1 S 1199.960000
   1 S  902.780000
   1 S  679.200000
   1 S  510.990000
   1 S  384.440000
   1 S  289.230000
   1 S  217.600000
   1 S  129.260000
   2 S  142.240000
   2 S   95.100000
   3 S   93.370000
   3 S   66.470000
   4 S   62.580000
   4 S   46.380000
   5 S   42.820000
   5 S   32.660000
   6 S   29.850000
   6 S   23.270000
   7 S   21.150000
   7 S   16.770000
   8 S   15.210000
   8 S   12.230000
   9 S   11.070000
   9 S    9.010000
  10 S    8.150000
  10 S    6.700000
  11 S    6.070000
  11 S    5.030000
  12 S    4.550000
  12 S    3.810000
  12 S    3.180000
  13 S    2.880000
  13 S    2.420000
  13 S    2.040000
   2 P  153.000000
   3 P  127.690000
   4 P  104.620000
   5 P   85.360000
   6 P   69.720000
   7 P   57.130000
   7 P   40.980000
   8 P   33.710000
   8 P   24.670000
   9 P   20.380000
   9 P   15.180000
  10 P   12.590000
  10 P    9.510000
  11 P    7.920000
  11 P    6.060000
  12 P    5.070000
  12 P    3.920000
  13 P    3.290000
  13 P    2.570000
   3 D  130.850000
   4 D   91.890000
   5 D   65.340000
   6 D   47.080000
   7 D   34.350000
   8 D   25.360000
   9 D   18.910000
   9 D   12.740000
  10 D    9.600000
  10 D    6.590000
  11 D    5.010000
  11 D    3.500000
  12 D    2.680000
  12 D    1.900000
   4 F  118.400000
   5 F   72.780000
   6 F   45.920000
   7 F   29.630000
   8 F   19.500000
   9 F   13.050000
  10 F    8.870000
  10 F    5.510000
  11 F    3.800000
  11 F    2.410000
   5 G   53.800000
   6 G   31.220000
   7 G   18.640000
   8 G   11.410000
   9 G    7.140000
  10 G    4.550000
  11 G    2.950000
  11 G    1.760000

 Atom Type    2  (O)
 ==============

 Valence Basis Sets:  10
 -----------------------
   1 S    9.800000
   1 S    6.800000
   2 S    7.580000
   2 S    2.880000
   2 S    1.720000
   2 P    4.080000
   2 P    2.080000
   2 P    1.120000
   3 D    2.000000
   4 F    3.000000

 Charge Fitting Sets (for the computation of the Coulomb Potential):  22
 -----------------------------------------------------------------------
   1 S   19.600000
   2 S   22.600000
   2 S   15.680000
   2 S   10.890000
   2 S    7.560000
   3 S    7.690000
   3 S    5.650000
   3 S    4.150000
   3 S    3.050000
   3 S    2.240000
   2 P   12.860000
   2 P    7.680000
   3 P    6.780000
   3 P    4.390000
   3 P    2.840000
   3 D    8.800000
   3 D    5.580000
   3 D    3.530000
   3 D    2.240000
   4 F    6.200000
   4 F    3.700000
   5 G    4.500000

 Atom Type    3  (Cl)
 ==============

 Valence Basis Sets:  14
 -----------------------
   1 S   20.300000
   1 S   15.250000
   2 S    6.250000
   2 S    4.450000
   2 P    8.850000
   2 P    5.050000
   3 S    3.450000
   3 S    2.300000
   3 S    1.600000
   3 P    3.350000
   3 P    2.050000
   3 P    1.200000
   3 D    2.000000
   4 F    2.000000

 Charge Fitting Sets (for the computation of the Coulomb Potential):  30
 -----------------------------------------------------------------------
   1 S   40.600000
   1 S   24.830000
   2 S   28.080000
   2 S   19.200000
   3 S   19.250000
   3 S   13.970000
   3 S   10.130000
   4 S    9.710000
   4 S    7.320000
   4 S    5.510000
   5 S    5.170000
   5 S    4.000000
   5 S    3.100000
   5 S    2.400000
   2 P   29.150000
   3 P   21.740000
   4 P   16.160000
   4 P    9.600000
   5 P    7.180000
   5 P    4.480000
   5 P    2.800000
   3 D   21.950000
   4 D   15.750000
   4 D    9.040000
   5 D    6.550000
   5 D    3.960000
   5 D    2.400000
   4 F    5.000000
   4 F    3.000000
   5 G    3.500000


 BAS: List of all Elementary Cartesian Basis Functions
 =====================================================

 The numbering in the list below (to the right of the function characteristics) is referred
 to in print-outs of MO eigenvectors and Mulliken populations in the BAS representation
 (as contrasted to the SFO representation).

 Notes:
 1. The functions are characterized by a polynomial prefactor (powers of x,y,z and r) and
    an exponential decay factor alpha.
 2. Since the basis sets are specific for an atom TYPE, the individual functions occur on
    all atoms of that type.
 3. The word 'Core' in the left margin signals that it is a Core Function (CF) : not a
    degree of freedom in the valence set, but only used to ensure orthogonalization of
    the other valence basis functions on the frozen Core Orbitals.


 (power of) X  Y  Z  R     Alpha  on Atom
            ==========     =====     ==========

 U                                    1
                                  ---------------------------------------------------------------------------
            0  0  0  0  1060.000      1
            0  0  0  0   245.000      2
            0  0  0  0   108.800      3
            0  0  0  1   134.900      4
            0  0  0  1    47.200      5
            0  0  0  2    60.000      6
            0  0  0  2    25.900      7
            0  0  0  3    15.800      8
            0  0  0  3    11.100      9
            0  0  0  4    10.450     10
            0  0  0  4     7.250     11
            0  0  0  5     5.000     12
            0  0  0  5     3.300     13
            0  0  0  6     2.350     14
            0  0  0  6     1.550     15
            0  0  0  6     1.020     16
            1  0  0  0   245.000     17
            0  1  0  0   245.000     18
            0  0  1  0   245.000     19
            1  0  0  0    85.500     20
            0  1  0  0    85.500     21
            0  0  1  0    85.500     22
            1  0  0  0    44.200     23
            0  1  0  0    44.200     24
            0  0  1  0    44.200     25
            1  0  0  1    25.100     26
            0  1  0  1    25.100     27
            0  0  1  1    25.100     28
            1  0  0  1    18.100     29
            0  1  0  1    18.100     30
            0  0  1  1    18.100     31
            1  0  0  2    17.900     32
            0  1  0  2    17.900     33
            0  0  1  2    17.900     34
            1  0  0  2    12.300     35
            0  1  0  2    12.300     36
            0  0  1  2    12.300     37
            1  0  0  3     8.650     38
            0  1  0  3     8.650     39
            0  0  1  3     8.650     40
            1  0  0  3     6.000     41
            0  1  0  3     6.000     42
            0  0  1  3     6.000     43
            1  0  0  4     4.450     44
            0  1  0  4     4.450     45
            0  0  1  4     4.450     46
            1  0  0  4     3.000     47
            0  1  0  4     3.000     48
            0  0  1  4     3.000     49
            1  0  0  4     2.100     50
            0  1  0  4     2.100     51
            0  0  1  4     2.100     52
            2  0  0  0    33.250     53
            1  1  0  0    33.250     54
            1  0  1  0    33.250     55
            0  2  0  0    33.250     56
            0  1  1  0    33.250     57
            0  0  2  0    33.250     58
            2  0  0  0    22.050     59
            1  1  0  0    22.050     60
            1  0  1  0    22.050     61
            0  2  0  0    22.050     62
            0  1  1  0    22.050     63
            0  0  2  0    22.050     64
            2  0  0  1    15.250     65
            1  1  0  1    15.250     66
            1  0  1  1    15.250     67
            0  2  0  1    15.250     68
            0  1  1  1    15.250     69
            0  0  2  1    15.250     70
            2  0  0  1    10.550     71
            1  1  0  1    10.550     72
            1  0  1  1    10.550     73
            0  2  0  1    10.550     74
            0  1  1  1    10.550     75
            0  0  2  1    10.550     76
            2  0  0  2     7.250     77
            1  1  0  2     7.250     78
            1  0  1  2     7.250     79
            0  2  0  2     7.250     80
            0  1  1  2     7.250     81
            0  0  2  2     7.250     82
            2  0  0  2     4.650     83
            1  1  0  2     4.650     84
            1  0  1  2     4.650     85
            0  2  0  2     4.650     86
            0  1  1  2     4.650     87
            0  0  2  2     4.650     88
            2  0  0  3     2.900     89
            1  1  0  3     2.900     90
            1  0  1  3     2.900     91
            0  2  0  3     2.900     92
            0  1  1  3     2.900     93
            0  0  2  3     2.900     94
            2  0  0  3     1.600     95
            1  1  0  3     1.600     96
            1  0  1  3     1.600     97
            0  2  0  3     1.600     98
            0  1  1  3     1.600     99
            0  0  2  3     1.600    100
            2  0  0  3     0.880    101
            1  1  0  3     0.880    102
            1  0  1  3     0.880    103
            0  2  0  3     0.880    104
            0  1  1  3     0.880    105
            0  0  2  3     0.880    106
            3  0  0  0    17.450    107
            2  1  0  0    17.450    108
            2  0  1  0    17.450    109
            1  2  0  0    17.450    110
            1  1  1  0    17.450    111
            1  0  2  0    17.450    112
            0  3  0  0    17.450    113
            0  2  1  0    17.450    114
            0  1  2  0    17.450    115
            0  0  3  0    17.450    116
            3  0  0  0     9.600    117
            2  1  0  0     9.600    118
            2  0  1  0     9.600    119
            1  2  0  0     9.600    120
            1  1  1  0     9.600    121
            1  0  2  0     9.600    122
            0  3  0  0     9.600    123
            0  2  1  0     9.600    124
            0  1  2  0     9.600    125
            0  0  3  0     9.600    126
            3  0  0  1     5.800    127
            2  1  0  1     5.800    128
            2  0  1  1     5.800    129
            1  2  0  1     5.800    130
            1  1  1  1     5.800    131
            1  0  2  1     5.800    132
            0  3  0  1     5.800    133
            0  2  1  1     5.800    134
            0  1  2  1     5.800    135
            0  0  3  1     5.800    136
            3  0  0  1     3.000    137
            2  1  0  1     3.000    138
            2  0  1  1     3.000    139
            1  2  0  1     3.000    140
            1  1  1  1     3.000    141
            1  0  2  1     3.000    142
            0  3  0  1     3.000    143
            0  2  1  1     3.000    144
            0  1  2  1     3.000    145
            0  0  3  1     3.000    146
            3  0  0  1     1.390    147
            2  1  0  1     1.390    148
            2  0  1  1     1.390    149
            1  2  0  1     1.390    150
            1  1  1  1     1.390    151
            1  0  2  1     1.390    152
            0  3  0  1     1.390    153
            0  2  1  1     1.390    154
            0  1  2  1     1.390    155
            0  0  3  1     1.390    156
            1  0  0  5     1.550    157
            0  1  0  5     1.550    158
            0  0  1  5     1.550    159

 O                                    2    3
                                  ---------------------------------------------------------------------------
            0  0  0  0     9.800    160  190
            0  0  0  0     6.800    161  191
            0  0  0  1     7.580    162  192
            0  0  0  1     2.880    163  193
            0  0  0  1     1.720    164  194
            1  0  0  0     4.080    165  195
            0  1  0  0     4.080    166  196
            0  0  1  0     4.080    167  197
            1  0  0  0     2.080    168  198
            0  1  0  0     2.080    169  199
            0  0  1  0     2.080    170  200
            1  0  0  0     1.120    171  201
            0  1  0  0     1.120    172  202
            0  0  1  0     1.120    173  203
            2  0  0  0     2.000    174  204
            1  1  0  0     2.000    175  205
            1  0  1  0     2.000    176  206
            0  2  0  0     2.000    177  207
            0  1  1  0     2.000    178  208
            0  0  2  0     2.000    179  209
            3  0  0  0     3.000    180  210
            2  1  0  0     3.000    181  211
            2  0  1  0     3.000    182  212
            1  2  0  0     3.000    183  213
            1  1  1  0     3.000    184  214
            1  0  2  0     3.000    185  215
            0  3  0  0     3.000    186  216
            0  2  1  0     3.000    187  217
            0  1  2  0     3.000    188  218
            0  0  3  0     3.000    189  219

 Cl                                   4    5
                                  ---------------------------------------------------------------------------
            0  0  0  0    20.300    220  258
            0  0  0  0    15.250    221  259
            0  0  0  1     6.250    222  260
            0  0  0  1     4.450    223  261
            1  0  0  0     8.850    224  262
            0  1  0  0     8.850    225  263
            0  0  1  0     8.850    226  264
            1  0  0  0     5.050    227  265
            0  1  0  0     5.050    228  266
            0  0  1  0     5.050    229  267
            0  0  0  2     3.450    230  268
            0  0  0  2     2.300    231  269
            0  0  0  2     1.600    232  270
            1  0  0  1     3.350    233  271
            0  1  0  1     3.350    234  272
            0  0  1  1     3.350    235  273
            1  0  0  1     2.050    236  274
            0  1  0  1     2.050    237  275
            0  0  1  1     2.050    238  276
            1  0  0  1     1.200    239  277
            0  1  0  1     1.200    240  278
            0  0  1  1     1.200    241  279
            2  0  0  0     2.000    242  280
            1  1  0  0     2.000    243  281
            1  0  1  0     2.000    244  282
            0  2  0  0     2.000    245  283
            0  1  1  0     2.000    246  284
            0  0  2  0     2.000    247  285
            3  0  0  0     2.000    248  286
            2  1  0  0     2.000    249  287
            2  0  1  0     2.000    250  288
            1  2  0  0     2.000    251  289
            1  1  1  0     2.000    252  290
            1  0  2  0     2.000    253  291
            0  3  0  0     2.000    254  292
            0  2  1  0     2.000    255  293
            0  1  2  0     2.000    256  294
            0  0  3  0     2.000    257  295

 Total number of charge fitting functions (nprimf)       777
 Total number of Cartesian basis functions (naos)        295
 Total number of Cartesian core functions  (ncos)          0

1
 ***************************************************************************************************



                                              ***********************
                                              *  T E C H N I C A L  *
                                              ***********************
  



 =============================================================
 P A R A L L E L I Z A T I O N  and  V E C T O R I Z A T I O N
 =============================================================
  
 Nr of parallel processes:                                8
 Maximum vector length in NumInt loops:                 128



 =====================
 S C F   U P D A T E S
 =====================
  
 Max. nr. of cycles:                               300
 Convergence criterion:                              0.0000010000
   secondary criterion:                              0.0010000000

 Mix parameter (when DIIS does not apply):           0.2000000000
 Mixed ADIIS+SDIIS will be used                  
    Max number of expansion vectors:                10
    Pure ADIIS when Max([F,P]) is above              0.1000000000
    Pure SDIIS when Max([F,P]) is below              0.0010000000
 Automatic ElectronSmearing (in case of problematic SCF convergence) disabled



 =================
 P R E C I S I O N  ***  (General: NumInt, NeglectFunctionTails, ...)  ***
 =================
  

 NumInt:           Target precision:                 4.0000000000
 -------           Initial precision:                4.0000000000
                   Min. precision (optimization):    4.0000000000

 Neglect Functions:          Basis functions:        0.1000000000E-13
 ------------------          Fit functions:          0.1000000000E-13



 ===========================
 L I N E A R   S C A L I N G
 ===========================
  

 Cut-off radii density fit:                        0.1000000000E-07
 Overlap cut-off criterion AO matrix elements:     0.1000000000E-05
 Cut-offs for Coulomb potential and fitted density:0.1000000000E-07
 Cut-off criterion for Coulomb multipole terms:    0.1000000000E-07
 Progressive Convergence parameter:                 0.000000000    
1
 ***************************************************************************************************



                                            ***************************
                                            *  C O M P U T A T I O N  *
                                            ***************************
  

 Number of elements of the density matrix on this node (used, total):     12720     43660



 ===========================================
 Numerical Integration : Fuzzy Cells (Becke)
 ===========================================
  
 Becke grid quality: NORMAL         
  
 Lebedev angular grid order:             min:  11 max:  31
 Nr. of radial points:                   min:  49 max: 175

 Total nr. of points:      69094
 Nr. of blocks:              540
 Block length:               128
 Nr. of dummy points:         26


 Test of Precision of the Numerical Integration Grid
 ===================================================

 Integral of the Total Core Density:                   0.00000000000000



 ========================
 Density Fitting (zlmFit)
 ========================
  
 ZlmFit Fit Quality: NORMAL         
  
 Max L-expansion:                        min:   7 max:   8
 Nr. of radial interpolation points:     min:  54 max: 150



 ======================
 RI Hartree-Fock Scheme
 ======================
  
 Fit Set Quality     : NORMAL
 Integration Quality : NORMAL
 Threshold Quality   : NORMAL
 Response Quality    : DEFAULT
 Is Range Separated  :  T
 Type of Range Separation : 
 Long-Range: Erf potential                                                      
                                                                                
   
 Asymptotic Coulomb       :   0.650000000000000     
 
 RIHartreeFock Dependency: number of modified vectors:           2



 =====
 S C F  ***  ScaSCF  ***
 =====
  
 Initial density matrix is calculated as sum of fragments

 CYCLE    1
 SCF Error: norm([F,P])=      8.332753797458, max([F,P])=      2.256268927240
 orbitals (Q,E):
 ---------------
 A :62...81          ( 2.00    -0.5860)  ( 2.00    -0.5638)  ( 2.00    -0.5550)  ( 2.00    -0.4708)
                     ( 2.00    -0.4542)  ( 2.00    -0.4470)  ( 2.00    -0.4437)  ( 2.00    -0.4365)
                     ( 2.00    -0.4285)  ( 2.00    -0.3667)  ( 0.00    -0.1264)  ( 0.00    -0.0908)
                     ( 0.00    -0.0874)  ( 0.00    -0.0740)  ( 0.00    -0.0725)  ( 0.00    -0.0619)
                     ( 0.00    -0.0358)  ( 0.00    -0.0168)  ( 0.00    -0.0002)  ( 0.00     0.0241)

 CYCLE    2
   MIX coefficients:  0.8000  0.2000
 SCF Error: norm([F,P])=      2.446161473915, max([F,P])=      0.384927189495
 orbitals (Q,E):
 ---------------
 A :62...72          ( 2.00    -0.5295)  ( 2.00    -0.5185)  ( 2.00    -0.5104)  ( 2.00    -0.4634)
                     ( 2.00    -0.4532)  ( 2.00    -0.4405)  ( 2.00    -0.4381)  ( 2.00    -0.4220)
                     ( 2.00    -0.4207)  ( 2.00    -0.3844)  ( 0.00    -0.1992)

 CYCLE    3
  SDIIS (wt  0.000): -0.4320  1.4320
 A-DIIS (wt  1.000):  0.0000  1.0000
  DIIS coefficients:  0.0000  1.0000
 SCF Error: norm([F,P])=      0.834582208699, max([F,P])=      0.150201316292
 orbitals (Q,E):
 ---------------
 A :62...72          ( 2.00    -0.4954)  ( 2.00    -0.4838)  ( 2.00    -0.4823)  ( 2.00    -0.4624)
                     ( 2.00    -0.4146)  ( 2.00    -0.4124)  ( 2.00    -0.3883)  ( 2.00    -0.3858)
                     ( 2.00    -0.3808)  ( 2.00    -0.3526)  ( 0.00    -0.2897)

 CYCLE    4
  SDIIS (wt  0.000): -0.2334  1.1560  0.0775
 A-DIIS (wt  1.000):  0.0000  0.9051  0.0949
  DIIS coefficients:  0.0000  0.9051  0.0949
 SCF Error: norm([F,P])=      4.600739715903, max([F,P])=      0.916970313787
 orbitals (Q,E):
 ---------------
 A :62...72          ( 2.00    -0.4661)  ( 2.00    -0.4631)  ( 2.00    -0.4625)  ( 2.00    -0.4615)
                     ( 2.00    -0.4084)  ( 2.00    -0.4020)  ( 2.00    -0.3872)  ( 2.00    -0.3775)
                     ( 2.00    -0.3708)  ( 2.00    -0.3553)  ( 0.00    -0.1692)

 CYCLE    5
  SDIIS (wt  0.000):  0.0817  0.3756 -0.0729  0.6156
 A-DIIS (wt  1.000):  0.0000  0.6036  0.0000  0.3964
  DIIS coefficients:  0.0000  0.6036  0.0000  0.3964
 SCF Error: norm([F,P])=      1.318038862629, max([F,P])=      0.272172326422
 orbitals (Q,E):
 ---------------
 A :62...72          ( 2.00    -0.5013)  ( 2.00    -0.4918)  ( 2.00    -0.4898)  ( 2.00    -0.4577)
                     ( 2.00    -0.4122)  ( 2.00    -0.4006)  ( 2.00    -0.3887)  ( 2.00    -0.3768)
                     ( 2.00    -0.3754)  ( 2.00    -0.3596)  ( 0.00    -0.1064)

 CYCLE    6
  SDIIS (wt  0.873): -0.0383  0.2455  0.0051  0.0573  0.7304
 A-DIIS (wt  0.127):  0.0000  0.0000  0.0000  0.0000  1.0000
  DIIS coefficients: -0.0334  0.2142  0.0045  0.0500  0.7647
 SCF Error: norm([F,P])=      0.103947814716, max([F,P])=      0.013595752227
 orbitals (Q,E):
 ---------------
 A :62...72          ( 2.00    -0.5097)  ( 2.00    -0.5020)  ( 2.00    -0.4993)  ( 2.00    -0.4694)
                     ( 2.00    -0.4253)  ( 2.00    -0.4142)  ( 2.00    -0.4021)  ( 2.00    -0.3901)
                     ( 2.00    -0.3897)  ( 2.00    -0.3736)  ( 0.00    -0.1091)

 CYCLE    7
  SDIIS (wt  0.958): -0.0068  0.0346  0.0013 -0.0045  0.2832  0.6922
 A-DIIS (wt  0.042):  0.0000  0.0000  0.0000  0.0000  0.0000  1.0000
  DIIS coefficients: -0.0065  0.0332  0.0012 -0.0043  0.2713  0.7051
 SCF Error: norm([F,P])=      0.039670955811, max([F,P])=      0.005151026713
 orbitals (Q,E):
 ---------------
 A :62...72          ( 2.00    -0.5097)  ( 2.00    -0.5020)  ( 2.00    -0.4993)  ( 2.00    -0.4683)
                     ( 2.00    -0.4221)  ( 2.00    -0.4111)  ( 2.00    -0.3986)  ( 2.00    -0.3867)
                     ( 2.00    -0.3866)  ( 2.00    -0.3706)  ( 0.00    -0.1066)

 CYCLE    8
  SDIIS (wt  0.990):  0.0012 -0.0100 -0.0009 -0.0040  0.0152  0.2171  0.7815
 A-DIIS (wt  0.010):  0.0000  0.0000  0.0000  0.0000  0.0000  0.0000  1.0000
  DIIS coefficients:  0.0012 -0.0099 -0.0009 -0.0039  0.0150  0.2148  0.7837
 SCF Error: norm([F,P])=      0.010254964921, max([F,P])=      0.002022951434
 orbitals (Q,E):
 ---------------
 A :62...72          ( 2.00    -0.5093)  ( 2.00    -0.5016)  ( 2.00    -0.4989)  ( 2.00    -0.4680)
                     ( 2.00    -0.4222)  ( 2.00    -0.4113)  ( 2.00    -0.3987)  ( 2.00    -0.3868)
                     ( 2.00    -0.3867)  ( 2.00    -0.3707)  ( 0.00    -0.1060)

 CYCLE    9
  SDIIS (wt  1.000):  0.0007 -0.0058 -0.0001 -0.0013 -0.0282 -0.0223  0.2229  0.8341
  DIIS coefficients:  0.0007 -0.0058 -0.0001 -0.0013 -0.0282 -0.0223  0.2229  0.8341
 SCF Error: norm([F,P])=      0.003330533695, max([F,P])=      0.000548844737
 orbitals (Q,E):
 ---------------
 A :62...72          ( 2.00    -0.5094)  ( 2.00    -0.5017)  ( 2.00    -0.4989)  ( 2.00    -0.4682)
                     ( 2.00    -0.4223)  ( 2.00    -0.4114)  ( 2.00    -0.3988)  ( 2.00    -0.3868)
                     ( 2.00    -0.3868)  ( 2.00    -0.3708)  ( 0.00    -0.1062)

 CYCLE   10
  SDIIS (wt  1.000): -0.0001 -0.0003  0.0002 -0.0001 -0.0074 -0.0246 -0.0393  0.1796  0.8920
  DIIS coefficients: -0.0001 -0.0003  0.0002 -0.0001 -0.0074 -0.0246 -0.0393  0.1796  0.8920
 SCF Error: norm([F,P])=      0.001250355263, max([F,P])=      0.000262183206
 orbitals (Q,E):
 ---------------
 A :62...72          ( 2.00    -0.5094)  ( 2.00    -0.5018)  ( 2.00    -0.4990)  ( 2.00    -0.4683)
                     ( 2.00    -0.4223)  ( 2.00    -0.4114)  ( 2.00    -0.3988)  ( 2.00    -0.3868)
                     ( 2.00    -0.3867)  ( 2.00    -0.3708)  ( 0.00    -0.1064)

 CYCLE   11
  SDIIS (wt  1.000): -0.0001  0.0009 -0.0001  0.0006  0.0027 -0.0016 -0.0429 -0.0896  0.1839  0.9462
  DIIS coefficients: -0.0001  0.0009 -0.0001  0.0006  0.0027 -0.0016 -0.0429 -0.0896  0.1839  0.9462
 SCF Error: norm([F,P])=      0.000454927902, max([F,P])=      0.000092912530
 orbitals (Q,E):
 ---------------
 A :62...72          ( 2.00    -0.5093)  ( 2.00    -0.5017)  ( 2.00    -0.4990)  ( 2.00    -0.4683)
                     ( 2.00    -0.4223)  ( 2.00    -0.4114)  ( 2.00    -0.3988)  ( 2.00    -0.3868)
                     ( 2.00    -0.3867)  ( 2.00    -0.3708)  ( 0.00    -0.1063)

 CYCLE   12
  SDIIS (wt  1.000):  0.0001 -0.0000  0.0000  0.0008  0.0027  0.0014 -0.0250 -0.0964  0.1585  0.9579
  DIIS coefficients:  0.0001 -0.0000  0.0000  0.0008  0.0027  0.0014 -0.0250 -0.0964  0.1585  0.9579
 SCF Error: norm([F,P])=      0.000171008487, max([F,P])=      0.000039057973
 orbitals (Q,E):
 ---------------
 A :62...72          ( 2.00    -0.5094)  ( 2.00    -0.5017)  ( 2.00    -0.4990)  ( 2.00    -0.4683)
                     ( 2.00    -0.4223)  ( 2.00    -0.4114)  ( 2.00    -0.3988)  ( 2.00    -0.3868)
                     ( 2.00    -0.3867)  ( 2.00    -0.3708)  ( 0.00    -0.1064)

 CYCLE   13
  SDIIS (wt  1.000): -0.0000  0.0000  0.0001  0.0005  0.0012 -0.0004 -0.0178 -0.0264  0.0235  1.0193
  DIIS coefficients: -0.0000  0.0000  0.0001  0.0005  0.0012 -0.0004 -0.0178 -0.0264  0.0235  1.0193
 SCF Error: norm([F,P])=      0.000046252180, max([F,P])=      0.000009696997
 orbitals (Q,E):
 ---------------
 A :62...72          ( 2.00    -0.5094)  ( 2.00    -0.5017)  ( 2.00    -0.4990)  ( 2.00    -0.4683)
                     ( 2.00    -0.4223)  ( 2.00    -0.4114)  ( 2.00    -0.3988)  ( 2.00    -0.3868)
                     ( 2.00    -0.3867)  ( 2.00    -0.3708)  ( 0.00    -0.1064)

 CYCLE   14
  SDIIS (wt  1.000):  0.0000 -0.0001 -0.0002  0.0005  0.0033  0.0025 -0.0265 -0.0861  0.2811  0.8255
  DIIS coefficients:  0.0000 -0.0001 -0.0002  0.0005  0.0033  0.0025 -0.0265 -0.0861  0.2811  0.8255
 SCF Error: norm([F,P])=      0.000019497034, max([F,P])=      0.000004415786
 orbitals (Q,E):
 ---------------
 A :62...72          ( 2.00    -0.5094)  ( 2.00    -0.5017)  ( 2.00    -0.4990)  ( 2.00    -0.4683)
                     ( 2.00    -0.4223)  ( 2.00    -0.4114)  ( 2.00    -0.3988)  ( 2.00    -0.3868)
                     ( 2.00    -0.3867)  ( 2.00    -0.3708)  ( 0.00    -0.1064)

 CYCLE   15
  SDIIS (wt  1.000): -0.0000 -0.0002 -0.0004  0.0009  0.0063 -0.0021 -0.0296 -0.0589 -0.0463  1.1302
  DIIS coefficients: -0.0000 -0.0002 -0.0004  0.0009  0.0063 -0.0021 -0.0296 -0.0589 -0.0463  1.1302
 SCF Error: norm([F,P])=      0.000005829039, max([F,P])=      0.000001607387
 orbitals (Q,E):
 ---------------
 A :62...72          ( 2.00    -0.5094)  ( 2.00    -0.5017)  ( 2.00    -0.4990)  ( 2.00    -0.4683)
                     ( 2.00    -0.4223)  ( 2.00    -0.4114)  ( 2.00    -0.3988)  ( 2.00    -0.3868)
                     ( 2.00    -0.3867)  ( 2.00    -0.3708)  ( 0.00    -0.1064)

 CYCLE   16
  SDIIS (wt  1.000):  0.0000 -0.0001 -0.0001  0.0007  0.0003  0.0010 -0.0263 -0.0873  0.2334  0.8783
  DIIS coefficients:  0.0000 -0.0001 -0.0001  0.0007  0.0003  0.0010 -0.0263 -0.0873  0.2334  0.8783
 SCF Error: norm([F,P])=      0.000001847204, max([F,P])=      0.000000549606
 orbitals (Q,E):
 ---------------
 A :62...72          ( 2.00    -0.5094)  ( 2.00    -0.5017)  ( 2.00    -0.4990)  ( 2.00    -0.4683)
                     ( 2.00    -0.4223)  ( 2.00    -0.4114)  ( 2.00    -0.3988)  ( 2.00    -0.3868)
                     ( 2.00    -0.3867)  ( 2.00    -0.3708)  ( 0.00    -0.1064)

 SCF CONVERGED

 CYCLE   17
1
 ***************************************************************************************************



                                                *******************
                                                *  R E S U L T S  *
                                                *******************
  
  
 Hartree-Fock exchange energy:   -115.729960310646     
 *** Using EXACT density in Focky


 *** Use of untested dispersion parameters detected in GrimmeDispersion ***


  SDIIS (wt  1.000): -0.0000 -0.0001  0.0001  0.0004  0.0017 -0.0116 -0.0324  0.0241  0.4066  0.6112
  DIIS coefficients: -0.0000 -0.0001  0.0001  0.0004  0.0017 -0.0116 -0.0324  0.0241  0.4066  0.6112
 SCF Error: norm([F,P])=      0.000001234713, max([F,P])=      0.000000303577

 Scaled ZORA Orbital Energies, per Irrep and Spin:
 =================================================
                        Occup              E (au)              E (eV)       Diff (eV) with prev. cycle
                        -----      --------------------        ------       --------------------------
 A
              62        2.000     -0.50935463361189E+00       -13.860              -2.95E-07
              63        2.000     -0.50174129951512E+00       -13.653               1.71E-08
              64        2.000     -0.49897627554145E+00       -13.578              -5.93E-07
              65        2.000     -0.46829651628066E+00       -12.743               2.50E-09
              66        2.000     -0.42231494206205E+00       -11.492               1.96E-07
              67        2.000     -0.41136110572899E+00       -11.194               2.44E-07
              68        2.000     -0.39877254310908E+00       -10.851               2.15E-07
              69        2.000     -0.38680358021755E+00       -10.525               3.75E-07
              70        2.000     -0.38674688996621E+00       -10.524               3.50E-07
              71        2.000     -0.37082035911152E+00       -10.091               4.16E-07
              72        0.000     -0.10637439750072E+00        -2.895
              73        0.000     -0.10414299517607E+00        -2.834
              74        0.000     -0.10037916851890E+00        -2.731
              75        0.000     -0.99680578446775E-01        -2.712
              76        0.000     -0.74205270972893E-01        -2.019
              77        0.000     -0.53958701571115E-01        -1.468
              78        0.000     -0.15415660456010E-01        -0.419
              79        0.000      0.84453749092711E-02         0.230
              80        0.000      0.14276676879561E-01         0.388
              81        0.000      0.54987525630515E-01         1.496
  
 HOMO :       71 A                -0.37082035911152E+00
 LUMO :       72 A                -0.10637439750072E+00
  


 All Electron Calculation, thus no Orbital Energies of the Core Orbitals are calculated


 Fit test: (difference of exact and fit density, squared integrated, result summed over spins)
         Sum-of-Fragments:                             0.00000785691049
         Orthogonalized Fragments:                     0.00313543445517
         SCF:                                          0.00316937105745



 ==========================
 Electron Density at Nuclei
 ==========================
  
 The electron density is calculated at points on a small sphere around the center of a nucleus.
 The printed electron density is the average electron density on these points.
 The radius of the sphere is the printed approximate finite nuclear radius.
 Note: ZORA-4 density is used, which includes small component density

         Atom        Nuclear Radius (Angstrom)             Electron Density (a.u.)
         ----        -------------------------             -----------------------
     1)   U                 0.0000742428                          4174130.93870
     2)   O                 0.0000345546                              313.91383
     3)   O                 0.0000345546                              313.91380
     4)   Cl                0.0000426624                             3311.41855
     5)   Cl                0.0000426624                             3311.41855



 =======================================
 M U L L I K E N   P O P U L A T I O N S
 =======================================
  
 The survey below gives for each atom:
 a) the total charge (Z minus electrons)
 b) the net spin polarization (nr of electrons spin-A minus spin-B)
 c) for each spin the atomic electron valence density (integrated) per L-value.

[...]
   i, eigenvalue(i) in dvdson     5    0.1390241055E+00
   i, eigenvalue(i) in dvdson     6    0.1397305467E+00
   i, eigenvalue(i) in dvdson     7    0.1421244107E+00
   i, eigenvalue(i) in dvdson     8    0.1425260352E+00
   i, eigenvalue(i) in dvdson     9    0.1446695723E+00
   i, eigenvalue(i) in dvdson    10    0.1465932711E+00
   i, eigenvalue(i) in dvdson    11    0.1476532382E+00
   i, eigenvalue(i) in dvdson    12    0.1477490959E+00
   i, eigenvalue(i) in dvdson    13    0.1500409609E+00
   i, eigenvalue(i) in dvdson    14    0.1500837745E+00
   i, eigenvalue(i) in dvdson    15    0.1523310255E+00
   i, eigenvalue(i) in dvdson    16    0.1532009089E+00
Eigenvalues of small (approximate) problem
   i, eigenvalue(i) in dvdson     1    0.9189898477E-01
   i, eigenvalue(i) in dvdson     2    0.9505502190E-01
   i, eigenvalue(i) in dvdson     3    0.9669614291E-01
   i, eigenvalue(i) in dvdson     4    0.9798792253E-01
   i, eigenvalue(i) in dvdson     5    0.1390190762E+00
   i, eigenvalue(i) in dvdson     6    0.1397304722E+00
   i, eigenvalue(i) in dvdson     7    0.1421243996E+00
   i, eigenvalue(i) in dvdson     8    0.1424988874E+00
   i, eigenvalue(i) in dvdson     9    0.1446597629E+00
   i, eigenvalue(i) in dvdson    10    0.1465932578E+00
   i, eigenvalue(i) in dvdson    11    0.1476515984E+00
   i, eigenvalue(i) in dvdson    12    0.1477490935E+00
   i, eigenvalue(i) in dvdson    13    0.1500409097E+00
   i, eigenvalue(i) in dvdson    14    0.1500830501E+00
   i, eigenvalue(i) in dvdson    15    0.1523282183E+00
   i, eigenvalue(i) in dvdson    16    0.1532008696E+00
 collapse basis         104          32
Eigenvalues of small (approximate) problem
   i, eigenvalue(i) in dvdson     1    0.9189898402E-01
   i, eigenvalue(i) in dvdson     2    0.9505502035E-01
   i, eigenvalue(i) in dvdson     3    0.9669614228E-01
   i, eigenvalue(i) in dvdson     4    0.9798792135E-01
   i, eigenvalue(i) in dvdson     5    0.1390189975E+00
   i, eigenvalue(i) in dvdson     6    0.1397304711E+00
   i, eigenvalue(i) in dvdson     7    0.1421243794E+00
   i, eigenvalue(i) in dvdson     8    0.1424985751E+00
   i, eigenvalue(i) in dvdson     9    0.1446594916E+00
   i, eigenvalue(i) in dvdson    10    0.1465932388E+00
   i, eigenvalue(i) in dvdson    11    0.1476515511E+00
   i, eigenvalue(i) in dvdson    12    0.1477490907E+00
   i, eigenvalue(i) in dvdson    13    0.1500408929E+00
   i, eigenvalue(i) in dvdson    14    0.1500827724E+00
   i, eigenvalue(i) in dvdson    15    0.1523281952E+00
   i, eigenvalue(i) in dvdson    16    0.1532007657E+00


**************************************************************************
*                                                                        *
*   Final excitation energies from Davidson algorithm                    *
*                                                                        *
**************************************************************************

    Number of loops in Davidson routine     =   11                    
    Number of matrix-vector multiplications =  280                    
    Type of excitations = SINGLET-TRIPLET                                 
                                                                          

 Symmetry A    

 Excitation energies E in a.u. and eV, dE wrt prev. cycle,
 oscillator strengths f in a.u.

 no.  E/a.u.        E/eV      f           dE/a.u.
 -----------------------------------------------------
   1 0.91899E-01  2.5007      0.0000      0.75E-09
   2 0.95055E-01  2.5866      0.0000      0.15E-08
   3 0.96696E-01  2.6312      0.0000      0.63E-09
   4 0.97988E-01  2.6664      0.0000      0.12E-08
   5 0.13902      3.7829      0.0000      0.79E-07
   6 0.13973      3.8023      0.0000      0.10E-08
   7 0.14212      3.8674      0.0000      0.20E-07
   8 0.14250      3.8776      0.0000      0.31E-06
   9 0.14466      3.9364      0.0000      0.27E-06
  10 0.14659      3.9890      0.0000      0.19E-07
  11 0.14765      4.0178      0.0000      0.47E-07
  12 0.14775      4.0205      0.0000      0.28E-08
  13 0.15004      4.0828      0.0000      0.17E-07
  14 0.15008      4.0840      0.0000      0.28E-06
  15 0.15233      4.1451      0.0000      0.23E-07
  16 0.15320      4.1688      0.0000      0.10E-06
 
                                                        
 Major MO -> MO transitions for the above excitations   
                                                        
    Excitation  Occupied to virtual  Contribution       

     Nr.          orbitals           weight        contributions to     
                                     (sum=1) transition dipole moment   
                                              x       y       z       


     1:  71a       ->  74a          0.5663
     1:  65a       ->  74a          0.4177
     1:  59a       ->  74a          0.0071
     1:  69a       ->  73a          0.0013
     1:  65a       ->  95a          0.0013
     1:  67a       ->  73a          0.0012
     1:  60a       ->  74a          0.0008
     1:  68a       ->  72a          0.0006
     1:  71a       ->  95a          0.0003
     1:  62a       ->  79a          0.0003
     1:  64a       ->  72a          0.0003
     1:  62a       ->  78a          0.0003
     1:  66a       ->  72a          0.0002
     1:  65a       ->  82a          0.0002
     1:  63a       ->  73a          0.0002


     2:  71a       ->  75a          0.6082
     2:  65a       ->  75a          0.3760
     2:  59a       ->  75a          0.0064
     2:  67a       ->  72a          0.0015
     2:  69a       ->  72a          0.0014
     2:  65a       ->  99a          0.0010
     2:  68a       ->  73a          0.0009
     2:  60a       ->  75a          0.0008
     2:  62a       ->  80a          0.0003
     2:  64a       ->  73a          0.0003
     2:  65a       -> 102a          0.0003
     2:  65a       ->  91a          0.0002
     2:  70a       ->  92a          0.0002
     2:  63a       ->  72a          0.0002
     2:  55a       ->  72a          0.0001
     2:  66a       ->  73a          0.0001
     2:  65a       ->  84a          0.0001


     3:  71a       ->  72a          0.6312
     3:  65a       ->  72a          0.3439
     3:  59a       ->  72a          0.0053
     3:  65a       ->  76a          0.0029
     3:  71a       ->  79a          0.0025
     3:  71a       ->  76a          0.0020
     3:  67a       ->  75a          0.0017
     3:  69a       ->  75a          0.0015
     3:  65a       ->  79a          0.0013
     3:  60a       ->  72a          0.0010
     3:  65a       ->  93a          0.0007
     3:  68a       ->  74a          0.0006
     3:  70a       ->  80a          0.0005
     3:  70a       ->  77a          0.0005
     3:  64a       ->  74a          0.0004
     3:  65a       ->  94a          0.0004
     3:  65a       ->  83a          0.0004
     3:  65a       ->  88a          0.0003
     3:  66a       ->  74a          0.0002
     3:  63a       ->  75a          0.0002


     4:  71a       ->  73a          0.6386
     4:  65a       ->  73a          0.3389
     4:  59a       ->  73a          0.0053
     4:  71a       ->  77a          0.0033
     4:  71a       ->  80a          0.0016
     4:  67a       ->  74a          0.0014
     4:  70a       ->  79a          0.0014
     4:  69a       ->  74a          0.0013
     4:  60a       ->  73a          0.0011
     4:  68a       ->  75a          0.0010
     4:  70a       ->  76a          0.0007
     4:  65a       ->  80a          0.0006
     4:  65a       ->  97a          0.0006
     4:  70a       ->  78a          0.0006
     4:  65a       ->  77a          0.0006
     4:  64a       ->  75a          0.0004
     4:  65a       -> 104a          0.0004
     4:  63a       ->  74a          0.0003


     5:  69a       ->  73a          0.8545
     5:  67a       ->  73a          0.0599
     5:  70a       ->  75a          0.0439
     5:  69a       ->  77a          0.0090
     5:  66a       ->  79a          0.0059
     5:  63a       ->  73a          0.0058
     5:  68a       ->  79a          0.0027
     5:  66a       ->  78a          0.0026
     5:  71a       ->  74a          0.0023
     5:  66a       ->  76a          0.0023
     5:  69a       ->  80a          0.0021
     5:  68a       ->  76a          0.0019
     5:  58a       ->  73a          0.0013
     5:  68a       ->  78a          0.0009
     5:  66a       ->  72a          0.0006
     5:  55a       ->  73a          0.0006
     5:  68a       ->  72a          0.0005
     5:  66a       ->  81a          0.0004
     5:  61a       ->  75a          0.0003
     5:  64a       ->  76a          0.0003


     6:  69a       ->  72a          0.8115
     6:  67a       ->  72a          0.1557
     6:  63a       ->  72a          0.0107
     6:  71a       ->  75a          0.0033
     6:  69a       ->  79a          0.0028
     6:  70a       ->  74a          0.0023
     6:  66a       ->  77a          0.0022
     6:  66a       ->  80a          0.0021
     6:  58a       ->  72a          0.0020
     6:  66a       ->  73a          0.0016
     6:  66a       ->  87a          0.0008
     6:  55a       ->  72a          0.0008
     6:  67a       ->  79a          0.0007
     6:  68a       ->  77a          0.0005
     6:  68a       ->  73a          0.0004
     6:  68a       ->  80a          0.0003
     6:  69a       ->  76a          0.0002
     6:  67a       ->  76a          0.0002


     7:  70a       ->  73a          0.8514
     7:  69a       ->  75a          0.0854
     7:  71a       ->  76a          0.0266
     7:  71a       ->  79a          0.0120
     7:  70a       ->  77a          0.0094
     7:  61a       ->  73a          0.0038
     7:  70a       ->  80a          0.0023
     7:  71a       ->  78a          0.0021
     7:  65a       ->  76a          0.0017
     7:  65a       ->  78a          0.0014
     7:  71a       ->  81a          0.0010
     7:  66a       ->  74a          0.0004
     7:  65a       ->  72a          0.0003
     7:  67a       ->  75a          0.0002


     8:  70a       ->  72a          0.9622
     8:  71a       ->  77a          0.0130
     8:  69a       ->  74a          0.0066
     8:  61a       ->  72a          0.0049
     8:  70a       ->  79a          0.0033
     8:  71a       ->  80a          0.0029
     8:  66a       ->  75a          0.0019
     8:  68a       ->  75a          0.0012
     8:  71a       ->  87a          0.0012
     8:  65a       ->  77a          0.0005
     8:  65a       ->  80a          0.0005


     9:  70a       ->  75a          0.9124
     9:  67a       ->  73a          0.0371
     9:  69a       ->  73a          0.0257
     9:  61a       ->  75a          0.0057
     9:  68a       ->  72a          0.0049
     9:  66a       ->  72a          0.0025
     9:  63a       ->  73a          0.0022
     9:  67a       ->  77a          0.0018
     9:  71a       ->  92a          0.0012
     9:  70a       ->  91a          0.0008
     9:  63a       ->  80a          0.0006
     9:  71a       ->  74a          0.0005
     9:  61a       ->  91a          0.0004
     9:  71a       ->  90a          0.0004
     9:  63a       ->  77a          0.0004
     9:  66a       ->  76a          0.0003
     9:  65a       ->  74a          0.0003
     9:  71a       ->  85a          0.0003
     9:  67a       ->  80a          0.0002
     9:  65a       ->  92a          0.0002


    10:  69a       ->  75a          0.7725
    10:  67a       ->  75a          0.1123
    10:  70a       ->  73a          0.0619
    10:  71a       ->  76a          0.0217
    10:  71a       ->  72a          0.0070
    10:  65a       ->  76a          0.0069
    10:  63a       ->  75a          0.0058
    10:  65a       ->  78a          0.0027
    10:  58a       ->  75a          0.0014
    10:  68a       ->  74a          0.0013
    10:  71a       ->  78a          0.0012
    10:  66a       ->  92a          0.0009
    10:  71a       ->  79a          0.0009
    10:  55a       ->  75a          0.0005
    10:  69a       ->  91a          0.0004
    10:  61a       ->  73a          0.0003
    10:  70a       ->  77a          0.0003
    10:  71a       ->  81a          0.0002


    11:  69a       ->  74a          0.8585
    11:  67a       ->  74a          0.1157
    11:  63a       ->  74a          0.0086
    11:  70a       ->  72a          0.0055
    11:  71a       ->  73a          0.0046
    11:  58a       ->  74a          0.0016
    11:  71a       ->  77a          0.0014
    11:  68a       ->  75a          0.0014
    11:  66a       ->  91a          0.0007


    12:  70a       ->  74a          0.9823
    12:  61a       ->  74a          0.0075
    12:  67a       ->  72a          0.0055
    12:  68a       ->  73a          0.0010
    12:  71a       ->  91a          0.0009
    12:  63a       ->  72a          0.0006
    12:  65a       ->  75a          0.0006


    13:  68a       ->  73a          0.8782
    13:  66a       ->  73a          0.0577
    13:  64a       ->  73a          0.0124
    13:  68a       ->  77a          0.0121
    13:  67a       ->  72a          0.0059
    13:  67a       ->  79a          0.0054
    13:  68a       ->  80a          0.0044
    13:  67a       ->  76a          0.0041
    13:  67a       ->  78a          0.0039
    13:  69a       ->  76a          0.0037
    13:  69a       ->  79a          0.0032
    13:  71a       ->  75a          0.0015
    13:  70a       ->  74a          0.0012
    13:  57a       ->  73a          0.0012
    13:  69a       ->  78a          0.0012
    13:  54a       ->  73a          0.0004
    13:  66a       ->  77a          0.0003
    13:  68a       ->  87a          0.0003
    13:  67a       ->  81a          0.0003
    13:  69a       ->  81a          0.0002


    14:  68a       ->  72a          0.8449
    14:  66a       ->  72a          0.0972
    14:  64a       ->  72a          0.0150
    14:  70a       ->  75a          0.0097
    14:  67a       ->  73a          0.0086
    14:  67a       ->  77a          0.0044
    14:  69a       ->  73a          0.0030
    14:  67a       ->  80a          0.0030
    14:  68a       ->  79a          0.0023
    14:  68a       ->  76a          0.0017
    14:  57a       ->  72a          0.0015
    14:  71a       ->  74a          0.0014
    14:  69a       ->  77a          0.0012
    14:  67a       ->  87a          0.0009
    14:  64a       ->  76a          0.0006
    14:  69a       ->  80a          0.0006
    14:  66a       ->  76a          0.0005
    14:  54a       ->  72a          0.0005
    14:  66a       ->  79a          0.0005
    14:  56a       ->  72a          0.0002


    15:  67a       ->  72a          0.7801
    15:  69a       ->  72a          0.1679
    15:  63a       ->  72a          0.0179
    15:  68a       ->  73a          0.0090
    15:  67a       ->  79a          0.0036
    15:  70a       ->  74a          0.0035
    15:  68a       ->  77a          0.0033
    15:  68a       ->  80a          0.0027
    15:  69a       ->  79a          0.0021
    15:  66a       ->  73a          0.0019
    15:  71a       ->  75a          0.0015
    15:  58a       ->  72a          0.0013
    15:  68a       ->  87a          0.0010
    15:  69a       ->  76a          0.0005
    15:  67a       ->  76a          0.0004
    15:  69a       ->  78a          0.0004
    15:  55a       ->  72a          0.0003
    15:  65a       ->  75a          0.0003
    15:  66a       ->  77a          0.0002
    15:  69a       ->  81a          0.0001


    16:  71a       ->  76a          0.4838
    16:  65a       ->  76a          0.2092
    16:  71a       ->  78a          0.0893
    16:  65a       ->  78a          0.0703
    16:  68a       ->  74a          0.0385
    16:  70a       ->  73a          0.0341
    16:  69a       ->  75a          0.0150
    16:  66a       ->  74a          0.0105
    16:  71a       ->  72a          0.0104
    16:  67a       ->  75a          0.0080
    16:  65a       ->  72a          0.0062
    16:  71a       ->  79a          0.0033
    16:  71a       ->  81a          0.0032
    16:  65a       ->  81a          0.0030
    16:  65a       ->  79a          0.0027
    16:  70a       ->  77a          0.0022
    16:  62a       ->  92a          0.0016
    16:  59a       ->  76a          0.0012
    16:  70a       ->  80a          0.0007
    16:  63a       ->  75a          0.0007
 

 All SINGLET-TRIPLET excitation energies 

 no.     E/a.u.        E/eV      f           tau/s        Symmetry
 ------------------------------------------------------------------
   1:     0.09190      2.50070    0.000                   A           
   2:     0.09506      2.58658    0.000                   A           
   3:     0.09670      2.63124    0.000                   A           
   4:     0.09799      2.66639    0.000                   A           
   5:     0.13902      3.78290    0.000                   A           
   6:     0.13973      3.80226    0.000                   A           
   7:     0.14212      3.86740    0.000                   A           
   8:     0.14250      3.87758    0.000                   A           
   9:     0.14466      3.93639    0.000                   A           
  10:     0.14659      3.98900    0.000                   A           
  11:     0.14765      4.01780    0.000                   A           
  12:     0.14775      4.02046    0.000                   A           
  13:     0.15004      4.08282    0.000                   A           
  14:     0.15008      4.08396    0.000                   A           
  15:     0.15233      4.14506    0.000                   A           
  16:     0.15320      4.16880    0.000                   A           

 tau: electric dipole radiative lifetime (in seconds)

 Unrelaxed approximate excited state dipole moments

 no.       E/eV     Excited state dipole moment (Debye)   Symmetry
 ------------------------------------------------------------------
   1:      2.50070     0.00000     3.70026     0.00000    A
   2:      2.58658    -0.00005     3.64093     0.00001    A
   3:      2.63124    -0.00002     2.95621    -0.00003    A
   4:      2.66639     0.00005     2.97423    -0.00008    A
   5:      3.78290    -0.00047    -0.77257     0.00125    A
   6:      3.80226     0.00028    -0.68030    -0.00146    A
   7:      3.86740    -0.00004    -0.79194    -0.00040    A
   8:      3.87758    -0.00478    -0.93538    -0.00289    A
   9:      3.93639     0.00131    -0.30444     0.00224    A
  10:      3.98900    -0.00023    -0.30345     0.00113    A
  11:      4.01780     0.00061    -0.49766     0.00913    A
  12:      4.02046     0.00014    -0.55011    -0.00046    A
  13:      4.08282     0.00017    -0.58511    -0.01672    A
  14:      4.08396     0.00044    -0.63384    -0.00651    A
  15:      4.14506    -0.00021    -0.46489     0.01440    A
  16:      4.16880    -0.00319     1.14466    -0.00074    A


 Normal termination of EXCITATION program part





 =======================================================================
 Electrostatic potential at the Nuclei due to electrons and other nuclei
 =======================================================================
  
         Atom                  Potential
         ----                  ---------
     1)   U                 803.27929059
     2)   O                  22.33825791
     3)   O                  22.33825716
     4)   Cl                 64.89072631
     5)   Cl                 64.89072614
 Mulliken charges used for AMS results%charges...


    =====================
     CALCULATION RESULTS
    =====================

Energy (hartree)            -2.00962959


--------------
Atomic charges
--------------
  Index   Atom    Charge
      1      U    1.8005
      2      O   -0.5586
      3      O   -0.5586
      4     Cl   -0.3416
      5     Cl   -0.3416


Dipole moment vector    (Debye):     0.00000355    5.05649325    0.00000050
              magnitude (Debye):     5.05649325


AMS application finished. Exiting.
NORMAL TERMINATION
     Total cpu time:   11623.09
  Total system time:    1726.67
 Total elapsed time:   13348.49
