

 Parallel Execution: Process Information
 ==============================================================================
 Rank   Node Name                              NodeID   MyNodeRank  NodeMaster
    0   u-5-3.local                               0          0          0
    1   u-5-3.local                               0          1         -1
    2   u-5-3.local                               0          2         -1
    3   u-5-3.local                               0          3         -1
    4   u-5-3.local                               1          0          1
    5   u-5-3.local                               1          1         -1
    6   u-5-3.local                               1          2         -1
    7   u-5-3.local                               1          3         -1
 ==============================================================================


May use up to 31144MB of RAM as shared memory on node 0
May use up to 31250MB of RAM as shared memory on node 1

 *******************************************************************************
 *                                                                             *
 *  --------------------------------                                           *
 *   Amsterdam Modeling Suite (AMS)              2021.106                      *
 *  --------------------------------                                           *
 *                                               r99350 2021-12-03             *
 *                                                                             *
 *                                                                             *
 *                              =================                              *
 *                              |               |                              *
 *                              |     A M S     |                              *
 *                              |               |                              *
 *                              =================                              *
 *                                                                             *
 *                                                                             *
 *   Online information and documentation:  https://www.scm.com/support/       *
 *   E-mail:  support@scm.com   info@scm.com                                   *
 *                                                                             *
 *   Scientific publications using AMS results must be properly referenced     *
 *   See the User Manuals (or the web site) for recommended citations          *
 *   The terms and conditions of the End User License Agreement apply to       *
 *   the use of AMS, https://www.scm.com/license-terms/                        *
 *                                                                             *
 **********************  x86_64_linux_intel / intelmpi  ************************
 
 Licensed to: Dr. Val?rie Vallet / Laboratoire PhLAM UMR 8523 / Villeneuve d'Ascq Cedex / FRANCE 2023-01-20 17:43:01
 SCM User ID: u10325
  
 AMS 2021.106  RunTime: Jan25-2023 12:15:34  ShM Nodes: 2  Procs: 8

 AMS jobname: uo2.tddft-camb3lyp.SR
 AMS jobid  : 1117966975

 Start   directory: /home/vallet/Bent-Uranyl/uo2/adf/geom-pbe0-d3-gp-bent/fullkernel/
 Results directory: /home/vallet/Bent-Uranyl/uo2/adf/geom-pbe0-d3-gp-bent/fullkernel/uo2.tddft-camb3lyp.SR.results/
 Scratch directory: /state/partition1/vallet/923094.phlam-s-sakura/amstmp_uo2.tddft-camb3lyp.SR_kid0.1117966975/


 Communication costs MPI_COMM_WORLD:      1.751 usec per message,   0.0062 usec per 8-byte item
 Communication costs for intra-node:      0.871 usec per message,   0.0034 usec per 8-byte item

 RNG seed: 250496757 842231437 2039515416 -104749879 -182027765 -1051203892 980079238 632971383



                      ************************************************************************
                      *  ADF 2021.106  RunTime: Jan25-2023 12:15:35  ShM Nodes: 2  Procs: 8  *
                      ************************************************************************
  
       ****************************
       * SINGLE POINT CALCULATION *
       ****************************
 
--------
Geometry
--------
Formula: O2U
Atoms
  Index Symbol   x (angstrom)   y (angstrom)   z (angstrom)
      1      U     0.00000000     0.00000000    -0.17612333
      2      O     0.00000000     1.73393500     0.08806167
      3      O     0.00000000    -1.73393500     0.08806167
 
Total System Charge             2.00000
Bonding info available!
 
 
----------------
ADF Engine Input
----------------
 
 Basis
 Type TZ2P
 Core None
 End
 XC
 libxc CAM-B3LYP
 End
 Symmetry NOSYM
 Excitations
 Lowest 16
 NTO Yes
 Davidson
 End
 FullKernel Yes
 End
 

 Title: *** (NO TITLE) ***

 *** adf ***



 ===========================
 A T T A C H E D   F I L E S
 ===========================
  



 ===============================
 M O D E L   P A R A M E T E R S
 ===============================
  
 Range separated functional parameters:
 RANGESEP OMEGA=    0.330000 ALPHA=    0.190000 BETA=    0.460000 ERF-LONGRANGE 
                                                                                
   
 DENSITY FUNCTIONAL POTENTIAL (scf)

   *** Range Separated Functional ***

 Regions:
   LibXC version: 5. 1. 2
   Exchange-correlation  T T T T F F F T T F F F F F F F F F F F F
   HF parameter =   0.65000000
   LIBXC GAMMA=    0.330000 ALPHA=    0.650000 BETA=   -0.460000
   CAM version of B3LYP (Hybrid GGA)
[1] T. Yanai, D. P. Tew, and N. C. Handy, Chem. Phys. Lett. 393, 51 (2004)

 SPIN  (restricted / unrestr.)
    Molecule:                          Restricted                               
    Fragments:                         Restricted                               

 OTHER ASPECTS
    Relativistic Corrections:          scalar (ZORA,MAPA)                       

    Nuclear Charge Density Model:      Point Charge Nuclei                      
    Core Treatment:                    Frozen Orbital(s)                        

    Hyperfine or Zeeman Interaction:   ---                                      


 Fragment File(s)
 ----------------
 U:
         file : /home/vallet/Bent-Uranyl/uo2/adf/geom-pbe0-d3-gp-bent/fullkernel/uo2.tddft-camb3lyp.SR.results/t21.62EFEEDA.U
         jobid: 0
         title: Uranium (TZ2P, all electron)
 O:
         file : /home/vallet/Bent-Uranyl/uo2/adf/geom-pbe0-d3-gp-bent/fullkernel/uo2.tddft-camb3lyp.SR.results/t21.145967BA.O
         jobid: 0
         title: Oxygen (TZ2P)



 ===============
 G E O M E T R Y  ***  Planar Molecule  ***
 ===============
  

 ATOMS
 =====                            X Y Z                    CHARGE
                                (Angstrom)             Nucl     +Core       At.Mass
                       --------------------------    ----------------       -------
    1  U               0.0000    0.0000   -0.1761     92.00     92.00      238.0508
    2  O               0.0000    1.7339    0.0881      8.00      8.00       15.9949
    3  O               0.0000   -1.7339    0.0881      8.00      8.00       15.9949


 FRAGMENTS
 =========                                     Atoms in this Fragment     Cart. coord.s (Angstrom)
                                               -------------------------------------------------------
    1  U                                                 1  U            0.0000    0.0000   -0.1761
    2  O                                                 2  O            0.0000    1.7339    0.0881
    3  O                                                 3  O            0.0000   -1.7339    0.0881


 Interatomic Distance Matrix (Angstrom)
 --------------------------------------

   1)     0.000
   2)     1.754   0.000
   3)     1.754   3.468   0.000

 Min. Distance =    1.7539
 Max. Distance =    3.4679



 =====================================
 S Y M M E T R Y ,   E L E C T R O N S
 =====================================
  
 Symmetry: NOSYM

 Irreducible Representations, including subspecies
 -------------------------------------------------
 A

 Symmetry is NOT used when fitting density


 Configuration of Valence Electrons
 ==================================
 ( determined in the SCF procedure )

 Total:   106

 Net Charge: 2 (Nuclei minus Electrons)

 Aufbau principle for MO occupations will be applied through SCF cycle no.     150
 Thereafter, the program will assign electrons to MOs that are spatially
 similar to the occupied MOs in a "reference" cycle ("KeepOrbitals").
 The reference cycle is always the PREVIOUS cycle: it will evolve with
 the SCF procedure.
1
 ***************************************************************************************************



                                      ****************************************
                                      *  B U I L D : (Fragments, Functions)  *
                                      ****************************************
  



 =======
 S F O s  ***  (Symmetrized Fragment Orbitals)  ***
 =======
  
 SFOs are linear combinations of (valence) Fragment Orbitals (FOs), such that the SFOs transform as the
 irreducible representations of the (molecular) symmetry group. Each SFO is therefore characterized by
 an irrep of the molecule and by a few (or only one) generating FOs.
 The SFOs constitute a symmetry-adapted basis for the Fock matrix. The MO eigenvector coefficients in
 this basis provide a direct interpretation of the MOs in terms of Frontier Orbital Theory.

 The SFOs are combined with auxiliary Core Functions (CFs) to ensure orthogonalization on the (frozen)
 Core Orbitals (COs). The Core-orthogonalized SFOs (CSFOs) constitute the true Fock basis.

 The FOs, and hence also the (C)SFOs are combinations of the elementary basis functions (BAS). The basis
 functions that participate in the description of the SFOs depend on the irrep. The indices of the
 involved functions are printed below for each irrep.
 (The complete list of primitive basis functions is printed in another section)

 Total nr. of (C)SFOs (summation over all irreps) :   187

 NOTE: a (C)SFO that is defined as a combination of more than one FO is usually NOT normalized.



                                       === A ===
 Nr. of SFOs :  187
 Cartesian basis functions that participate in this irrep (total number =   219) :
      1     2     3     4     5     6     7     8     9    10
     11    12    13    14    15    16    17    20    23    26
     29    32    35    38    41    44    47    50   157    18
     21    24    27    30    33    36    39    42    45    48
     51   158    19    22    25    28    31    34    37    40
     43    46    49    52   159    53    59    65    71    77
     83    89    95   101    54    60    66    72    78    84
     90    96   102    55    61    67    73    79    85    91
     97   103    56    62    68    74    80    86    92    98
    104    57    63    69    75    81    87    93    99   105
     58    64    70    76    82    88    94   100   106   107
    117   127   137   147   108   118   128   138   148   109
    119   129   139   149   110   120   130   140   150   111
    121   131   141   151   112   122   132   142   152   113
    123   133   143   153   114   124   134   144   154   115
    125   135   145   155   116   126   136   146   156   160
    161   162   163   164   165   168   171   166   169   172
    167   170   173   174   175   176   177   178   179   180
    181   182   183   184   185   186   187   188   189   190
    191   192   193   194   195   198   201   196   199   202
    197   200   203   204   205   206   207   208   209   210
    211   212   213   214   215   216   217   218   219

    SFO  (index         Fragment          Generating    Expansion in Fragment Orbitals
  indx  incl.CFs)   Occup   Orb.Energy   FragmentType  Coeff.   Orbital     on Fragment
 --------------------------------------------------------------------------------------
     1       1      2.000   -4251.353 au  U             1.00      1 S               1
                        ( -115685.196 eV)
     2       2      2.000    -796.441 au  U             1.00      2 S               1
                        (  -21672.268 eV)
     3       3      2.000    -201.892 au  U             1.00      3 S               1
                        (   -5493.749 eV)
     4       4      2.000     -51.876 au  U             1.00      4 S               1
                        (   -1411.630 eV)
     5       5      2.000     -11.729 au  U             1.00      5 S               1
                        (    -319.169 eV)
     6       6      2.000      -1.945 au  U             1.00      6 S               1
                        (     -52.927 eV)
     7       7      2.000      -0.213 au  U             1.00      7 S               1
                        (      -5.803 eV)
     8       8       --         0.048 au  U             1.00      8 S               1
                        (       1.304 eV)
     9       9       --         0.365 au  U             1.00      9 S               1
                        (       9.926 eV)
    10      10       --         1.710 au  U             1.00     10 S               1
                        (      46.524 eV)
    11      11       --         8.839 au  U             1.00     11 S               1
                        (     240.518 eV)
    12      12       --        47.595 au  U             1.00     12 S               1
                        (    1295.126 eV)
    13      13       --      1081.390 au  U             1.00     13 S               1
                        (   29426.119 eV)
    14      14       --      5574.427 au  U             1.00     14 S               1
                        (  151687.880 eV)
    15      15       --     16665.542 au  U             1.00     15 S               1
                        (  453492.485 eV)
    16      16       --     47306.872 au  U             1.00     16 S               1
                        ( 1287285.481 eV)
    17      17      2.000    -662.462 au  U             1.00      1 P:x             1
                        (  -18026.515 eV)
    18      18      2.000    -164.599 au  U             1.00      2 P:x             1
                        (   -4478.961 eV)
    19      19      2.000     -39.673 au  U             1.00      3 P:x             1
                        (   -1079.554 eV)
    20      20      2.000      -7.932 au  U             1.00      4 P:x             1
                        (    -215.835 eV)
    21      21      2.000      -0.994 au  U             1.00      5 P:x             1
                        (     -27.045 eV)
    22      22       --         0.020 au  U             1.00      6 P:x             1
                        (       0.556 eV)
    23      23       --         0.440 au  U             1.00      7 P:x             1
                        (      11.979 eV)
    24      24       --         1.884 au  U             1.00      8 P:x             1
                        (      51.264 eV)
    25      25       --         7.651 au  U             1.00      9 P:x             1
                        (     208.183 eV)
    26      26       --        36.626 au  U             1.00     10 P:x             1
                        (     996.655 eV)
    27      27       --       183.078 au  U             1.00     11 P:x             1
                        (    4981.805 eV)
    28      28       --      1551.559 au  U             1.00     12 P:x             1
                        (   42220.063 eV)
    29      29       --     11017.681 au  U             1.00     13 P:x             1
                        (  299806.354 eV)
    30      30      2.000    -662.462 au  U             1.00      1 P:y             1
                        (  -18026.515 eV)
    31      31      2.000    -164.599 au  U             1.00      2 P:y             1
                        (   -4478.961 eV)
    32      32      2.000     -39.673 au  U             1.00      3 P:y             1
                        (   -1079.554 eV)
    33      33      2.000      -7.932 au  U             1.00      4 P:y             1
                        (    -215.835 eV)
    34      34      2.000      -0.994 au  U             1.00      5 P:y             1
                        (     -27.045 eV)
    35      35       --         0.020 au  U             1.00      6 P:y             1
                        (       0.556 eV)
    36      36       --         0.440 au  U             1.00      7 P:y             1
                        (      11.979 eV)
    37      37       --         1.884 au  U             1.00      8 P:y             1
                        (      51.264 eV)
    38      38       --         7.651 au  U             1.00      9 P:y             1
                        (     208.183 eV)
    39      39       --        36.626 au  U             1.00     10 P:y             1
                        (     996.655 eV)
    40      40       --       183.078 au  U             1.00     11 P:y             1
                        (    4981.805 eV)
    41      41       --      1551.559 au  U             1.00     12 P:y             1
                        (   42220.063 eV)
    42      42       --     11017.681 au  U             1.00     13 P:y             1
                        (  299806.354 eV)
    43      43      2.000    -662.462 au  U             1.00      1 P:z             1
                        (  -18026.515 eV)
    44      44      2.000    -164.599 au  U             1.00      2 P:z             1
                        (   -4478.961 eV)
    45      45      2.000     -39.673 au  U             1.00      3 P:z             1
                        (   -1079.554 eV)
    46      46      2.000      -7.932 au  U             1.00      4 P:z             1
                        (    -215.835 eV)
    47      47      2.000      -0.994 au  U             1.00      5 P:z             1
                        (     -27.045 eV)
    48      48       --         0.020 au  U             1.00      6 P:z             1
                        (       0.556 eV)
    49      49       --         0.440 au  U             1.00      7 P:z             1
                        (      11.979 eV)
    50      50       --         1.884 au  U             1.00      8 P:z             1
                        (      51.264 eV)
    51      51       --         7.651 au  U             1.00      9 P:z             1
                        (     208.183 eV)
    52      52       --        36.626 au  U             1.00     10 P:z             1
                        (     996.655 eV)
    53      53       --       183.078 au  U             1.00     11 P:z             1
                        (    4981.805 eV)
    54      54       --      1551.559 au  U             1.00     12 P:z             1
                        (   42220.063 eV)
    55      55       --     11017.681 au  U             1.00     13 P:z             1
                        (  299806.354 eV)
    56      56      2.000    -132.007 au  U             1.00      1 D:z2            1
                        (   -3592.098 eV)
    57      57      2.000     -27.274 au  U             1.00      2 D:z2            1
                        (    -742.171 eV)
    58      58      2.000      -3.863 au  U             1.00      3 D:z2            1
                        (    -105.123 eV)
    59      59      0.200      -0.032 au  U             1.00      4 D:z2            1
                        (      -0.878 eV)
    60      60       --         0.088 au  U             1.00      5 D:z2            1
                        (       2.389 eV)
    61      61       --         0.510 au  U             1.00      6 D:z2            1
                        (      13.866 eV)
    62      62       --         3.364 au  U             1.00      7 D:z2            1
                        (      91.549 eV)
    63      63       --        24.287 au  U             1.00      8 D:z2            1
                        (     660.870 eV)
    64      64       --       197.255 au  U             1.00      9 D:z2            1
                        (    5367.594 eV)
    65      65      2.000    -132.007 au  U             1.00      1 D:x2-y2         1
                        (   -3592.098 eV)
    66      66      2.000     -27.274 au  U             1.00      2 D:x2-y2         1
                        (    -742.171 eV)
    67      67      2.000      -3.863 au  U             1.00      3 D:x2-y2         1
                        (    -105.123 eV)
    68      68      0.200      -0.032 au  U             1.00      4 D:x2-y2         1
                        (      -0.878 eV)
    69      69       --         0.088 au  U             1.00      5 D:x2-y2         1
                        (       2.389 eV)
    70      70       --         0.510 au  U             1.00      6 D:x2-y2         1
                        (      13.866 eV)
    71      71       --         3.364 au  U             1.00      7 D:x2-y2         1
                        (      91.549 eV)
    72      72       --        24.287 au  U             1.00      8 D:x2-y2         1
                        (     660.870 eV)
    73      73       --       197.255 au  U             1.00      9 D:x2-y2         1
                        (    5367.594 eV)
    74      74      2.000    -132.007 au  U             1.00      1 D:xy            1
                        (   -3592.098 eV)
    75      75      2.000     -27.274 au  U             1.00      2 D:xy            1
                        (    -742.171 eV)
    76      76      2.000      -3.863 au  U             1.00      3 D:xy            1
                        (    -105.123 eV)
    77      77      0.200      -0.032 au  U             1.00      4 D:xy            1
                        (      -0.878 eV)
    78      78       --         0.088 au  U             1.00      5 D:xy            1
                        (       2.389 eV)
    79      79       --         0.510 au  U             1.00      6 D:xy            1
                        (      13.866 eV)
    80      80       --         3.364 au  U             1.00      7 D:xy            1
                        (      91.549 eV)
    81      81       --        24.287 au  U             1.00      8 D:xy            1
                        (     660.870 eV)
    82      82       --       197.255 au  U             1.00      9 D:xy            1
                        (    5367.594 eV)
    83      83      2.000    -132.007 au  U             1.00      1 D:xz            1
                        (   -3592.098 eV)
    84      84      2.000     -27.274 au  U             1.00      2 D:xz            1
                        (    -742.171 eV)
    85      85      2.000      -3.863 au  U             1.00      3 D:xz            1
                        (    -105.123 eV)
    86      86      0.200      -0.032 au  U             1.00      4 D:xz            1
                        (      -0.878 eV)
    87      87       --         0.088 au  U             1.00      5 D:xz            1
                        (       2.389 eV)
    88      88       --         0.510 au  U             1.00      6 D:xz            1
                        (      13.866 eV)
    89      89       --         3.364 au  U             1.00      7 D:xz            1
                        (      91.549 eV)
    90      90       --        24.287 au  U             1.00      8 D:xz            1
                        (     660.870 eV)
    91      91       --       197.255 au  U             1.00      9 D:xz            1
                        (    5367.594 eV)
    92      92      2.000    -132.007 au  U             1.00      1 D:yz            1
                        (   -3592.098 eV)
    93      93      2.000     -27.274 au  U             1.00      2 D:yz            1
                        (    -742.171 eV)
    94      94      2.000      -3.863 au  U             1.00      3 D:yz            1
                        (    -105.123 eV)
    95      95      0.200      -0.032 au  U             1.00      4 D:yz            1
                        (      -0.878 eV)
    96      96       --         0.088 au  U             1.00      5 D:yz            1
                        (       2.389 eV)
    97      97       --         0.510 au  U             1.00      6 D:yz            1
                        (      13.866 eV)
    98      98       --         3.364 au  U             1.00      7 D:yz            1
                        (      91.549 eV)
    99      99       --        24.287 au  U             1.00      8 D:yz            1
                        (     660.870 eV)
   100     100       --       197.255 au  U             1.00      9 D:yz            1
                        (    5367.594 eV)
   101     101      2.000     -14.070 au  U             1.00      1 F:z3            1
                        (    -382.852 eV)
   102     102      0.429      -0.056 au  U             1.00      2 F:z3            1
                        (      -1.528 eV)
   103     103       --         0.379 au  U             1.00      3 F:z3            1
                        (      10.321 eV)
   104     104       --         2.236 au  U             1.00      4 F:z3            1
                        (      60.848 eV)
   105     105       --        21.518 au  U             1.00      5 F:z3            1
                        (     585.544 eV)
   106     106      2.000     -14.070 au  U             1.00      1 F:z             1
                        (    -382.852 eV)
   107     107      0.429      -0.056 au  U             1.00      2 F:z             1
                        (      -1.528 eV)
   108     108       --         0.379 au  U             1.00      3 F:z             1
                        (      10.321 eV)
   109     109       --         2.236 au  U             1.00      4 F:z             1
                        (      60.848 eV)
   110     110       --        21.518 au  U             1.00      5 F:z             1
                        (     585.544 eV)
   111     111      2.000     -14.070 au  U             1.00      1 F:xyz           1
                        (    -382.852 eV)
   112     112      0.429      -0.056 au  U             1.00      2 F:xyz           1
                        (      -1.528 eV)
   113     113       --         0.379 au  U             1.00      3 F:xyz           1
                        (      10.321 eV)
   114     114       --         2.236 au  U             1.00      4 F:xyz           1
                        (      60.848 eV)
   115     115       --        21.518 au  U             1.00      5 F:xyz           1
                        (     585.544 eV)
   116     116      2.000     -14.070 au  U             1.00      1 F:z2x           1
                        (    -382.852 eV)
   117     117      0.429      -0.056 au  U             1.00      2 F:z2x           1
                        (      -1.528 eV)
   118     118       --         0.379 au  U             1.00      3 F:z2x           1
                        (      10.321 eV)
   119     119       --         2.236 au  U             1.00      4 F:z2x           1
                        (      60.848 eV)
   120     120       --        21.518 au  U             1.00      5 F:z2x           1
                        (     585.544 eV)
   121     121      2.000     -14.070 au  U             1.00      1 F:z2y           1
                        (    -382.852 eV)
   122     122      0.429      -0.056 au  U             1.00      2 F:z2y           1
                        (      -1.528 eV)
   123     123       --         0.379 au  U             1.00      3 F:z2y           1
                        (      10.321 eV)
   124     124       --         2.236 au  U             1.00      4 F:z2y           1
                        (      60.848 eV)
   125     125       --        21.518 au  U             1.00      5 F:z2y           1
                        (     585.544 eV)
   126     126      2.000     -14.070 au  U             1.00      1 F:x             1
                        (    -382.852 eV)
   127     127      0.429      -0.056 au  U             1.00      2 F:x             1
                        (      -1.528 eV)
   128     128       --         0.379 au  U             1.00      3 F:x             1
                        (      10.321 eV)
   129     129       --         2.236 au  U             1.00      4 F:x             1
                        (      60.848 eV)
   130     130       --        21.518 au  U             1.00      5 F:x             1
                        (     585.544 eV)
   131     131      2.000     -14.070 au  U             1.00      1 F:y             1
                        (    -382.852 eV)
   132     132      0.429      -0.056 au  U             1.00      2 F:y             1
                        (      -1.528 eV)
   133     133       --         0.379 au  U             1.00      3 F:y             1
                        (      10.321 eV)
   134     134       --         2.236 au  U             1.00      4 F:y             1
                        (      60.848 eV)
   135     135       --        21.518 au  U             1.00      5 F:y             1
                        (     585.544 eV)
   136     136      2.000     -19.398 au  O             1.00      1 S               2
                        (    -527.846 eV)
   137     137      2.000      -1.055 au  O             1.00      2 S               2
                        (     -28.706 eV)
   138     138       --         0.898 au  O             1.00      3 S               2
                        (      24.442 eV)
   139     139       --        13.659 au  O             1.00      4 S               2
                        (     371.685 eV)
   140     140       --       122.205 au  O             1.00      5 S               2
                        (    3325.373 eV)
   141     141      1.333      -0.391 au  O             1.00      1 P:x             2
                        (     -10.628 eV)
   142     142       --         0.430 au  O             1.00      2 P:x             2
                        (      11.691 eV)
   143     143       --         3.994 au  O             1.00      3 P:x             2
                        (     108.695 eV)
   144     144      1.333      -0.391 au  O             1.00      1 P:y             2
                        (     -10.628 eV)
   145     145       --         0.430 au  O             1.00      2 P:y             2
                        (      11.691 eV)
   146     146       --         3.994 au  O             1.00      3 P:y             2
                        (     108.695 eV)
   147     147      1.333      -0.391 au  O             1.00      1 P:z             2
                        (     -10.628 eV)
   148     148       --         0.430 au  O             1.00      2 P:z             2
                        (      11.691 eV)
   149     149       --         3.994 au  O             1.00      3 P:z             2
                        (     108.695 eV)
   150     150       --         1.180 au  O             1.00      1 D:z2            2
                        (      32.112 eV)
   151     151       --         1.180 au  O             1.00      1 D:x2-y2         2
                        (      32.112 eV)
   152     152       --         1.180 au  O             1.00      1 D:xy            2
                        (      32.112 eV)
   153     153       --         1.180 au  O             1.00      1 D:xz            2
                        (      32.112 eV)
   154     154       --         1.180 au  O             1.00      1 D:yz            2
                        (      32.112 eV)
   155     155       --         3.501 au  O             1.00      1 F:z3            2
                        (      95.277 eV)
   156     156       --         3.501 au  O             1.00      1 F:z             2
                        (      95.277 eV)
   157     157       --         3.501 au  O             1.00      1 F:xyz           2
                        (      95.277 eV)
   158     158       --         3.501 au  O             1.00      1 F:z2x           2
                        (      95.277 eV)
   159     159       --         3.501 au  O             1.00      1 F:z2y           2
                        (      95.277 eV)
   160     160       --         3.501 au  O             1.00      1 F:x             2
                        (      95.277 eV)
   161     161       --         3.501 au  O             1.00      1 F:y             2
                        (      95.277 eV)
   162     162      2.000     -19.398 au  O             1.00      1 S               3
                        (    -527.846 eV)
   163     163      2.000      -1.055 au  O             1.00      2 S               3
                        (     -28.706 eV)
   164     164       --         0.898 au  O             1.00      3 S               3
                        (      24.442 eV)
   165     165       --        13.659 au  O             1.00      4 S               3
                        (     371.685 eV)
   166     166       --       122.205 au  O             1.00      5 S               3
                        (    3325.373 eV)
   167     167      1.333      -0.391 au  O             1.00      1 P:x             3
                        (     -10.628 eV)
   168     168       --         0.430 au  O             1.00      2 P:x             3
                        (      11.691 eV)
   169     169       --         3.994 au  O             1.00      3 P:x             3
                        (     108.695 eV)
   170     170      1.333      -0.391 au  O             1.00      1 P:y             3
                        (     -10.628 eV)
   171     171       --         0.430 au  O             1.00      2 P:y             3
                        (      11.691 eV)
   172     172       --         3.994 au  O             1.00      3 P:y             3
                        (     108.695 eV)
   173     173      1.333      -0.391 au  O             1.00      1 P:z             3
                        (     -10.628 eV)
   174     174       --         0.430 au  O             1.00      2 P:z             3
                        (      11.691 eV)
   175     175       --         3.994 au  O             1.00      3 P:z             3
                        (     108.695 eV)
   176     176       --         1.180 au  O             1.00      1 D:z2            3
                        (      32.112 eV)
   177     177       --         1.180 au  O             1.00      1 D:x2-y2         3
                        (      32.112 eV)
   178     178       --         1.180 au  O             1.00      1 D:xy            3
                        (      32.112 eV)
   179     179       --         1.180 au  O             1.00      1 D:xz            3
                        (      32.112 eV)
   180     180       --         1.180 au  O             1.00      1 D:yz            3
                        (      32.112 eV)
   181     181       --         3.501 au  O             1.00      1 F:z3            3
                        (      95.277 eV)
   182     182       --         3.501 au  O             1.00      1 F:z             3
                        (      95.277 eV)
   183     183       --         3.501 au  O             1.00      1 F:xyz           3
                        (      95.277 eV)
   184     184       --         3.501 au  O             1.00      1 F:z2x           3
                        (      95.277 eV)
   185     185       --         3.501 au  O             1.00      1 F:z2y           3
                        (      95.277 eV)
   186     186       --         3.501 au  O             1.00      1 F:x             3
                        (      95.277 eV)
   187     187       --         3.501 au  O             1.00      1 F:y             3
                        (      95.277 eV)



 ================================
 (Slater-type)  F U N C T I O N S  ***  (Basis and Fit)  ***
 ================================
  

 Atom Type    1  (U)
 ==============

 Valence Basis Sets:  43
 -----------------------
   1 S 1060.000000
   1 S  245.000000
   1 S  108.800000
   2 S  134.900000
   2 S   47.200000
   3 S   60.000000
   3 S   25.900000
   4 S   15.800000
   4 S   11.100000
   5 S   10.450000
   5 S    7.250000
   6 S    5.000000
   6 S    3.300000
   7 S    2.350000
   7 S    1.550000
   7 S    1.020000
   2 P  245.000000
   2 P   85.500000
   2 P   44.200000
   3 P   25.100000
   3 P   18.100000
   4 P   17.900000
   4 P   12.300000
   5 P    8.650000
   5 P    6.000000
   6 P    4.450000
   6 P    3.000000
   6 P    2.100000
   3 D   33.250000
   3 D   22.050000
   4 D   15.250000
   4 D   10.550000
   5 D    7.250000
   5 D    4.650000
   6 D    2.900000
   6 D    1.600000
   6 D    0.880000
   4 F   17.450000
   4 F    9.600000
   5 F    5.800000
   5 F    3.000000
   5 F    1.390000
   7 P    1.550000

 Charge Fitting Sets (for the computation of the Coulomb Potential):  87
 -----------------------------------------------------------------------
   1 S 2120.000000
   1 S 1594.965000
   1 S 1199.960000
   1 S  902.780000
   1 S  679.200000
   1 S  510.990000
   1 S  384.440000
   1 S  289.230000
   1 S  217.600000
   1 S  129.260000
   2 S  142.240000
   2 S   95.100000
   3 S   93.370000
   3 S   66.470000
   4 S   62.580000
   4 S   46.380000
   5 S   42.820000
   5 S   32.660000
   6 S   29.850000
   6 S   23.270000
   7 S   21.150000
   7 S   16.770000
   8 S   15.210000
   8 S   12.230000
   9 S   11.070000
   9 S    9.010000
  10 S    8.150000
  10 S    6.700000
  11 S    6.070000
  11 S    5.030000
  12 S    4.550000
  12 S    3.810000
  12 S    3.180000
  13 S    2.880000
  13 S    2.420000
  13 S    2.040000
   2 P  153.000000
   3 P  127.690000
   4 P  104.620000
   5 P   85.360000
   6 P   69.720000
   7 P   57.130000
   7 P   40.980000
   8 P   33.710000
   8 P   24.670000
   9 P   20.380000
   9 P   15.180000
  10 P   12.590000
  10 P    9.510000
  11 P    7.920000
  11 P    6.060000
  12 P    5.070000
  12 P    3.920000
  13 P    3.290000
  13 P    2.570000
   3 D  130.850000
   4 D   91.890000
   5 D   65.340000
   6 D   47.080000
   7 D   34.350000
   8 D   25.360000
   9 D   18.910000
   9 D   12.740000
  10 D    9.600000
  10 D    6.590000
  11 D    5.010000
  11 D    3.500000
  12 D    2.680000
  12 D    1.900000
   4 F  118.400000
   5 F   72.780000
   6 F   45.920000
   7 F   29.630000
   8 F   19.500000
   9 F   13.050000
  10 F    8.870000
  10 F    5.510000
  11 F    3.800000
  11 F    2.410000
   5 G   53.800000
   6 G   31.220000
   7 G   18.640000
   8 G   11.410000
   9 G    7.140000
  10 G    4.550000
  11 G    2.950000
  11 G    1.760000

 Atom Type    2  (O)
 ==============

 Valence Basis Sets:  10
 -----------------------
   1 S    9.800000
   1 S    6.800000
   2 S    7.580000
   2 S    2.880000
   2 S    1.720000
   2 P    4.080000
   2 P    2.080000
   2 P    1.120000
   3 D    2.000000
   4 F    3.000000

 Charge Fitting Sets (for the computation of the Coulomb Potential):  22
 -----------------------------------------------------------------------
   1 S   19.600000
   2 S   22.600000
   2 S   15.680000
   2 S   10.890000
   2 S    7.560000
   3 S    7.690000
   3 S    5.650000
   3 S    4.150000
   3 S    3.050000
   3 S    2.240000
   2 P   12.860000
   2 P    7.680000
   3 P    6.780000
   3 P    4.390000
   3 P    2.840000
   3 D    8.800000
   3 D    5.580000
   3 D    3.530000
   3 D    2.240000
   4 F    6.200000
   4 F    3.700000
   5 G    4.500000


 BAS: List of all Elementary Cartesian Basis Functions
 =====================================================

 The numbering in the list below (to the right of the function characteristics) is referred
 to in print-outs of MO eigenvectors and Mulliken populations in the BAS representation
 (as contrasted to the SFO representation).

 Notes:
 1. The functions are characterized by a polynomial prefactor (powers of x,y,z and r) and
    an exponential decay factor alpha.
 2. Since the basis sets are specific for an atom TYPE, the individual functions occur on
    all atoms of that type.
 3. The word 'Core' in the left margin signals that it is a Core Function (CF) : not a
    degree of freedom in the valence set, but only used to ensure orthogonalization of
    the other valence basis functions on the frozen Core Orbitals.


 (power of) X  Y  Z  R     Alpha  on Atom
            ==========     =====     ==========

 U                                    1
                                  ---------------------------------------------------------------------------
            0  0  0  0  1060.000      1
            0  0  0  0   245.000      2
            0  0  0  0   108.800      3
            0  0  0  1   134.900      4
            0  0  0  1    47.200      5
            0  0  0  2    60.000      6
            0  0  0  2    25.900      7
            0  0  0  3    15.800      8
            0  0  0  3    11.100      9
            0  0  0  4    10.450     10
            0  0  0  4     7.250     11
            0  0  0  5     5.000     12
            0  0  0  5     3.300     13
            0  0  0  6     2.350     14
            0  0  0  6     1.550     15
            0  0  0  6     1.020     16
            1  0  0  0   245.000     17
            0  1  0  0   245.000     18
            0  0  1  0   245.000     19
            1  0  0  0    85.500     20
            0  1  0  0    85.500     21
            0  0  1  0    85.500     22
            1  0  0  0    44.200     23
            0  1  0  0    44.200     24
            0  0  1  0    44.200     25
            1  0  0  1    25.100     26
            0  1  0  1    25.100     27
            0  0  1  1    25.100     28
            1  0  0  1    18.100     29
            0  1  0  1    18.100     30
            0  0  1  1    18.100     31
            1  0  0  2    17.900     32
            0  1  0  2    17.900     33
            0  0  1  2    17.900     34
            1  0  0  2    12.300     35
            0  1  0  2    12.300     36
            0  0  1  2    12.300     37
            1  0  0  3     8.650     38
            0  1  0  3     8.650     39
            0  0  1  3     8.650     40
            1  0  0  3     6.000     41
            0  1  0  3     6.000     42
            0  0  1  3     6.000     43
            1  0  0  4     4.450     44
            0  1  0  4     4.450     45
            0  0  1  4     4.450     46
            1  0  0  4     3.000     47
            0  1  0  4     3.000     48
            0  0  1  4     3.000     49
            1  0  0  4     2.100     50
            0  1  0  4     2.100     51
            0  0  1  4     2.100     52
            2  0  0  0    33.250     53
            1  1  0  0    33.250     54
            1  0  1  0    33.250     55
            0  2  0  0    33.250     56
            0  1  1  0    33.250     57
            0  0  2  0    33.250     58
            2  0  0  0    22.050     59
            1  1  0  0    22.050     60
            1  0  1  0    22.050     61
            0  2  0  0    22.050     62
            0  1  1  0    22.050     63
            0  0  2  0    22.050     64
            2  0  0  1    15.250     65
            1  1  0  1    15.250     66
            1  0  1  1    15.250     67
            0  2  0  1    15.250     68
            0  1  1  1    15.250     69
            0  0  2  1    15.250     70
            2  0  0  1    10.550     71
            1  1  0  1    10.550     72
            1  0  1  1    10.550     73
            0  2  0  1    10.550     74
            0  1  1  1    10.550     75
            0  0  2  1    10.550     76
            2  0  0  2     7.250     77
            1  1  0  2     7.250     78
            1  0  1  2     7.250     79
            0  2  0  2     7.250     80
            0  1  1  2     7.250     81
            0  0  2  2     7.250     82
            2  0  0  2     4.650     83
            1  1  0  2     4.650     84
            1  0  1  2     4.650     85
            0  2  0  2     4.650     86
            0  1  1  2     4.650     87
            0  0  2  2     4.650     88
            2  0  0  3     2.900     89
            1  1  0  3     2.900     90
            1  0  1  3     2.900     91
            0  2  0  3     2.900     92
            0  1  1  3     2.900     93
            0  0  2  3     2.900     94
            2  0  0  3     1.600     95
            1  1  0  3     1.600     96
            1  0  1  3     1.600     97
            0  2  0  3     1.600     98
            0  1  1  3     1.600     99
            0  0  2  3     1.600    100
            2  0  0  3     0.880    101
            1  1  0  3     0.880    102
            1  0  1  3     0.880    103
            0  2  0  3     0.880    104
            0  1  1  3     0.880    105
            0  0  2  3     0.880    106
            3  0  0  0    17.450    107
            2  1  0  0    17.450    108
            2  0  1  0    17.450    109
            1  2  0  0    17.450    110
            1  1  1  0    17.450    111
            1  0  2  0    17.450    112
            0  3  0  0    17.450    113
            0  2  1  0    17.450    114
            0  1  2  0    17.450    115
            0  0  3  0    17.450    116
            3  0  0  0     9.600    117
            2  1  0  0     9.600    118
            2  0  1  0     9.600    119
            1  2  0  0     9.600    120
            1  1  1  0     9.600    121
            1  0  2  0     9.600    122
            0  3  0  0     9.600    123
            0  2  1  0     9.600    124
            0  1  2  0     9.600    125
            0  0  3  0     9.600    126
            3  0  0  1     5.800    127
            2  1  0  1     5.800    128
            2  0  1  1     5.800    129
            1  2  0  1     5.800    130
            1  1  1  1     5.800    131
            1  0  2  1     5.800    132
            0  3  0  1     5.800    133
            0  2  1  1     5.800    134
            0  1  2  1     5.800    135
            0  0  3  1     5.800    136
            3  0  0  1     3.000    137
            2  1  0  1     3.000    138
            2  0  1  1     3.000    139
            1  2  0  1     3.000    140
            1  1  1  1     3.000    141
            1  0  2  1     3.000    142
            0  3  0  1     3.000    143
            0  2  1  1     3.000    144
            0  1  2  1     3.000    145
            0  0  3  1     3.000    146
            3  0  0  1     1.390    147
            2  1  0  1     1.390    148
            2  0  1  1     1.390    149
            1  2  0  1     1.390    150
            1  1  1  1     1.390    151
            1  0  2  1     1.390    152
            0  3  0  1     1.390    153
            0  2  1  1     1.390    154
            0  1  2  1     1.390    155
            0  0  3  1     1.390    156
            1  0  0  5     1.550    157
            0  1  0  5     1.550    158
            0  0  1  5     1.550    159

 O                                    2    3
                                  ---------------------------------------------------------------------------
            0  0  0  0     9.800    160  190
            0  0  0  0     6.800    161  191
            0  0  0  1     7.580    162  192
            0  0  0  1     2.880    163  193
            0  0  0  1     1.720    164  194
            1  0  0  0     4.080    165  195
            0  1  0  0     4.080    166  196
            0  0  1  0     4.080    167  197
            1  0  0  0     2.080    168  198
            0  1  0  0     2.080    169  199
            0  0  1  0     2.080    170  200
            1  0  0  0     1.120    171  201
            0  1  0  0     1.120    172  202
            0  0  1  0     1.120    173  203
            2  0  0  0     2.000    174  204
            1  1  0  0     2.000    175  205
            1  0  1  0     2.000    176  206
            0  2  0  0     2.000    177  207
            0  1  1  0     2.000    178  208
            0  0  2  0     2.000    179  209
            3  0  0  0     3.000    180  210
            2  1  0  0     3.000    181  211
            2  0  1  0     3.000    182  212
            1  2  0  0     3.000    183  213
            1  1  1  0     3.000    184  214
            1  0  2  0     3.000    185  215
            0  3  0  0     3.000    186  216
            0  2  1  0     3.000    187  217
            0  1  2  0     3.000    188  218
            0  0  3  0     3.000    189  219

 Total number of charge fitting functions (nprimf)       565
 Total number of Cartesian basis functions (naos)        219
 Total number of Cartesian core functions  (ncos)          0

1
 ***************************************************************************************************



                                              ***********************
                                              *  T E C H N I C A L  *
                                              ***********************
  



 =============================================================
 P A R A L L E L I Z A T I O N  and  V E C T O R I Z A T I O N
 =============================================================
  
 Nr of parallel processes:                                8
 Maximum vector length in NumInt loops:                 128



 =====================
 S C F   U P D A T E S
 =====================
  
 Max. nr. of cycles:                               300
 Convergence criterion:                              0.0000010000
   secondary criterion:                              0.0010000000

 Mix parameter (when DIIS does not apply):           0.2000000000
 Mixed ADIIS+SDIIS will be used                  
    Max number of expansion vectors:                10
    Pure ADIIS when Max([F,P]) is above              0.1000000000
    Pure SDIIS when Max([F,P]) is below              0.0010000000
 Automatic ElectronSmearing (in case of problematic SCF convergence) disabled



 =================
 P R E C I S I O N  ***  (General: NumInt, NeglectFunctionTails, ...)  ***
 =================
  

 NumInt:           Target precision:                 4.0000000000
 -------           Initial precision:                4.0000000000
                   Min. precision (optimization):    4.0000000000

 Neglect Functions:          Basis functions:        0.1000000000E-13
 ------------------          Fit functions:          0.1000000000E-13



 ===========================
 L I N E A R   S C A L I N G
 ===========================
  

 Cut-off radii density fit:                        0.1000000000E-07
 Overlap cut-off criterion AO matrix elements:     0.1000000000E-05
 Cut-offs for Coulomb potential and fitted density:0.1000000000E-07
 Cut-off criterion for Coulomb multipole terms:    0.1000000000E-07
 Progressive Convergence parameter:                 0.000000000    
1
 ***************************************************************************************************



                                            ***************************
                                            *  C O M P U T A T I O N  *
                                            ***************************
  

 Number of elements of the density matrix on this node (used, total):     12720     24090



 ===========================================
 Numerical Integration : Fuzzy Cells (Becke)
 ===========================================
  
 Becke grid quality: NORMAL         
  
 Lebedev angular grid order:             min:  11 max:  23
 Nr. of radial points:                   min:  49 max: 175

 Total nr. of points:      37108
 Nr. of blocks:              290
 Block length:               128
 Nr. of dummy points:         12


 Test of Precision of the Numerical Integration Grid
 ===================================================

 Integral of the Total Core Density:                   0.00000000000000



 ========================
 Density Fitting (zlmFit)
 ========================
  
 ZlmFit Fit Quality: NORMAL         
  
 Max L-expansion:                        min:   7 max:   7
 Nr. of radial interpolation points:     min:  54 max: 150



 ======================
 RI Hartree-Fock Scheme
 ======================
  
 Fit Set Quality     : NORMAL
 Integration Quality : NORMAL
 Threshold Quality   : NORMAL
 Response Quality    : DEFAULT
 Is Range Separated  :  T
 Type of Range Separation : 
 Long-Range: Erf potential                                                      
                                                                                
   
 Asymptotic Coulomb       :   0.650000000000000     
 
 RIHartreeFock Dependency: number of modified vectors:           0



 =====
 S C F  ***  ScaSCF  ***
 =====
  
 Initial density matrix is calculated as sum of fragments

 CYCLE    1
 SCF Error: norm([F,P])=      6.763622942214, max([F,P])=      2.117362114675
 orbitals (Q,E):
 ---------------
 A :44...63          ( 2.00    -1.2632)  ( 2.00    -1.0366)  ( 2.00    -1.0294)  ( 2.00    -0.8905)
                     ( 2.00    -0.5949)  ( 2.00    -0.5943)  ( 2.00    -0.5778)  ( 2.00    -0.5482)
                     ( 2.00    -0.5428)  ( 2.00    -0.3827)  ( 0.00    -0.1884)  ( 0.00    -0.0800)
                     ( 0.00    -0.0800)  ( 0.00    -0.0667)  ( 0.00    -0.0665)  ( 0.00    -0.0593)
                     ( 0.00    -0.0581)  ( 0.00    -0.0393)  ( 0.00    -0.0389)  ( 0.00     0.0112)

 CYCLE    2
   MIX coefficients:  0.8000  0.2000
 SCF Error: norm([F,P])=      2.619994824841, max([F,P])=      0.466381432370
 orbitals (Q,E):
 ---------------
 A :44...54          ( 2.00    -1.2989)  ( 2.00    -1.2374)  ( 2.00    -1.2011)  ( 2.00    -0.9488)
                     ( 2.00    -0.6197)  ( 2.00    -0.6184)  ( 2.00    -0.5964)  ( 2.00    -0.5863)
                     ( 2.00    -0.5829)  ( 2.00    -0.5082)  ( 0.00    -0.3086)

 CYCLE    3
  SDIIS (wt  0.000): -0.3912  1.3912
 A-DIIS (wt  1.000):  0.0000  1.0000
  DIIS coefficients:  0.0000  1.0000
 SCF Error: norm([F,P])=      0.891551515700, max([F,P])=      0.210504578941
 orbitals (Q,E):
 ---------------
 A :44...54          ( 2.00    -1.7820)  ( 2.00    -1.7762)  ( 2.00    -1.4720)  ( 2.00    -1.2955)
                     ( 2.00    -1.0321)  ( 2.00    -1.0033)  ( 2.00    -1.0033)  ( 2.00    -0.9441)
                     ( 2.00    -0.9414)  ( 2.00    -0.8886)  ( 0.00    -0.8795)

 CYCLE    4
  SDIIS (wt  0.000): -0.1299  1.0190  0.1109
 A-DIIS (wt  1.000):  0.0000  0.8904  0.1096
  DIIS coefficients:  0.0000  0.8904  0.1096
 SCF Error: norm([F,P])=      4.701211370280, max([F,P])=      1.067373161794
 orbitals (Q,E):
 ---------------
 A :44...54          ( 2.00    -1.6772)  ( 2.00    -1.6664)  ( 2.00    -1.5025)  ( 2.00    -1.2908)
                     ( 2.00    -0.9750)  ( 2.00    -0.9583)  ( 2.00    -0.9582)  ( 2.00    -0.9518)
                     ( 2.00    -0.9469)  ( 2.00    -0.9231)  ( 0.00    -0.7305)

 CYCLE    5
  SDIIS (wt  0.000):  0.0623  0.3790 -0.1143  0.6729
 A-DIIS (wt  1.000):  0.0000  0.5956  0.0000  0.4044
  DIIS coefficients:  0.0000  0.5956  0.0000  0.4044
 SCF Error: norm([F,P])=      1.482429840726, max([F,P])=      0.364200691179
 orbitals (Q,E):
 ---------------
 A :44...54          ( 2.00    -1.6156)  ( 2.00    -1.5934)  ( 2.00    -1.5226)  ( 2.00    -1.2961)
                     ( 2.00    -0.9754)  ( 2.00    -0.9720)  ( 2.00    -0.9602)  ( 2.00    -0.9596)
                     ( 2.00    -0.9529)  ( 2.00    -0.9358)  ( 0.00    -0.6341)

 CYCLE    6
  SDIIS (wt  0.841): -0.0379  0.1810  0.0029  0.0428  0.8112
 A-DIIS (wt  0.159):  0.0000  0.0000  0.0000  0.0000  1.0000
  DIIS coefficients: -0.0318  0.1522  0.0025  0.0360  0.8412
 SCF Error: norm([F,P])=      0.094593120078, max([F,P])=      0.016758566493
 orbitals (Q,E):
 ---------------
 A :44...54          ( 2.00    -1.6008)  ( 2.00    -1.5758)  ( 2.00    -1.5137)  ( 2.00    -1.2869)
                     ( 2.00    -0.9699)  ( 2.00    -0.9665)  ( 2.00    -0.9545)  ( 2.00    -0.9542)
                     ( 2.00    -0.9469)  ( 2.00    -0.9278)  ( 0.00    -0.6134)

 CYCLE    7
  SDIIS (wt  0.962): -0.0023  0.0089 -0.0054  0.0243  0.1887  0.7858
 A-DIIS (wt  0.038):  0.0000  0.0000  0.0000  0.0000  0.0000  1.0000
  DIIS coefficients: -0.0022  0.0086 -0.0052  0.0234  0.1815  0.7940
 SCF Error: norm([F,P])=      0.027330331780, max([F,P])=      0.004784064655
 orbitals (Q,E):
 ---------------
 A :44...54          ( 2.00    -1.5987)  ( 2.00    -1.5737)  ( 2.00    -1.5117)  ( 2.00    -1.2847)
                     ( 2.00    -0.9682)  ( 2.00    -0.9648)  ( 2.00    -0.9529)  ( 2.00    -0.9526)
                     ( 2.00    -0.9450)  ( 2.00    -0.9262)  ( 0.00    -0.6113)

 CYCLE    8
  SDIIS (wt  0.997):  0.0018 -0.0068  0.0001 -0.0046 -0.0230  0.0735  0.9590
 A-DIIS (wt  0.003):  0.0000  0.0000  0.0000  0.0000  0.0000  0.0000  1.0000
  DIIS coefficients:  0.0018 -0.0068  0.0001 -0.0046 -0.0229  0.0733  0.9591
 SCF Error: norm([F,P])=      0.006768252416, max([F,P])=      0.001340381500
 orbitals (Q,E):
 ---------------
 A :44...54          ( 2.00    -1.5988)  ( 2.00    -1.5736)  ( 2.00    -1.5120)  ( 2.00    -1.2850)
                     ( 2.00    -0.9685)  ( 2.00    -0.9651)  ( 2.00    -0.9532)  ( 2.00    -0.9529)
                     ( 2.00    -0.9455)  ( 2.00    -0.9266)  ( 0.00    -0.6113)

 CYCLE    9
  SDIIS (wt  1.000):  0.0006 -0.0028 -0.0000 -0.0023 -0.0122 -0.0057  0.3177  0.7048
  DIIS coefficients:  0.0006 -0.0028 -0.0000 -0.0023 -0.0122 -0.0057  0.3177  0.7048
 SCF Error: norm([F,P])=      0.002110148554, max([F,P])=      0.000319261724
 orbitals (Q,E):
 ---------------
 A :44...54          ( 2.00    -1.5986)  ( 2.00    -1.5734)  ( 2.00    -1.5119)  ( 2.00    -1.2849)
                     ( 2.00    -0.9684)  ( 2.00    -0.9650)  ( 2.00    -0.9531)  ( 2.00    -0.9528)
                     ( 2.00    -0.9453)  ( 2.00    -0.9264)  ( 0.00    -0.6111)

 CYCLE   10
  SDIIS (wt  1.000):  0.0000 -0.0001 -0.0002  0.0002 -0.0005 -0.0055 -0.0360  0.1618  0.8803
  DIIS coefficients:  0.0000 -0.0001 -0.0002  0.0002 -0.0005 -0.0055 -0.0360  0.1618  0.8803
 SCF Error: norm([F,P])=      0.000674979572, max([F,P])=      0.000136822912
 orbitals (Q,E):
 ---------------
 A :44...54          ( 2.00    -1.5986)  ( 2.00    -1.5734)  ( 2.00    -1.5119)  ( 2.00    -1.2849)
                     ( 2.00    -0.9684)  ( 2.00    -0.9650)  ( 2.00    -0.9531)  ( 2.00    -0.9527)
                     ( 2.00    -0.9453)  ( 2.00    -0.9264)  ( 0.00    -0.6111)

 CYCLE   11
  SDIIS (wt  1.000): -0.0001  0.0003 -0.0000  0.0003  0.0016  0.0014 -0.0551 -0.0440  0.2113  0.8845
  DIIS coefficients: -0.0001  0.0003 -0.0000  0.0003  0.0016  0.0014 -0.0551 -0.0440  0.2113  0.8845
 SCF Error: norm([F,P])=      0.000197828394, max([F,P])=      0.000031825518
 orbitals (Q,E):
 ---------------
 A :44...54          ( 2.00    -1.5986)  ( 2.00    -1.5735)  ( 2.00    -1.5119)  ( 2.00    -1.2849)
                     ( 2.00    -0.9684)  ( 2.00    -0.9650)  ( 2.00    -0.9531)  ( 2.00    -0.9528)
                     ( 2.00    -0.9453)  ( 2.00    -0.9265)  ( 0.00    -0.6111)

 CYCLE   12
  SDIIS (wt  1.000): -0.0000 -0.0000  0.0002 -0.0000  0.0002  0.0059 -0.0106 -0.1176 -0.0237  1.1457
  DIIS coefficients: -0.0000 -0.0000  0.0002 -0.0000  0.0002  0.0059 -0.0106 -0.1176 -0.0237  1.1457
 SCF Error: norm([F,P])=      0.000141949404, max([F,P])=      0.000029372534
 orbitals (Q,E):
 ---------------
 A :44...54          ( 2.00    -1.5986)  ( 2.00    -1.5735)  ( 2.00    -1.5119)  ( 2.00    -1.2849)
                     ( 2.00    -0.9684)  ( 2.00    -0.9650)  ( 2.00    -0.9531)  ( 2.00    -0.9528)
                     ( 2.00    -0.9453)  ( 2.00    -0.9265)  ( 0.00    -0.6111)

 CYCLE   13
  SDIIS (wt  1.000):  0.0000 -0.0000  0.0000  0.0001  0.0004  0.0006  0.0020 -0.0388 -0.0664  1.1021
  DIIS coefficients:  0.0000 -0.0000  0.0000  0.0001  0.0004  0.0006  0.0020 -0.0388 -0.0664  1.1021
 SCF Error: norm([F,P])=      0.000011448743, max([F,P])=      0.000002823559
 orbitals (Q,E):
 ---------------
 A :44...54          ( 2.00    -1.5986)  ( 2.00    -1.5735)  ( 2.00    -1.5119)  ( 2.00    -1.2849)
                     ( 2.00    -0.9684)  ( 2.00    -0.9650)  ( 2.00    -0.9531)  ( 2.00    -0.9528)
                     ( 2.00    -0.9453)  ( 2.00    -0.9265)  ( 0.00    -0.6111)

 CYCLE   14
  SDIIS (wt  1.000): -0.0000 -0.0000  0.0000 -0.0000  0.0009  0.0036 -0.0108 -0.0406  0.2547  0.7921
  DIIS coefficients: -0.0000 -0.0000  0.0000 -0.0000  0.0009  0.0036 -0.0108 -0.0406  0.2547  0.7921
 SCF Error: norm([F,P])=      0.000005122791, max([F,P])=      0.000001604037
 orbitals (Q,E):
 ---------------
 A :44...54          ( 2.00    -1.5986)  ( 2.00    -1.5735)  ( 2.00    -1.5119)  ( 2.00    -1.2849)
                     ( 2.00    -0.9684)  ( 2.00    -0.9650)  ( 2.00    -0.9531)  ( 2.00    -0.9528)
                     ( 2.00    -0.9453)  ( 2.00    -0.9265)  ( 0.00    -0.6111)

 CYCLE   15
  SDIIS (wt  1.000): -0.0000 -0.0000 -0.0002  0.0009  0.0036  0.0085 -0.0168 -0.3199  0.7346  0.5895
  DIIS coefficients: -0.0000 -0.0000 -0.0002  0.0009  0.0036  0.0085 -0.0168 -0.3199  0.7346  0.5895
 SCF Error: norm([F,P])=      0.000005654122, max([F,P])=      0.000001587128
 orbitals (Q,E):
 ---------------
 A :44...54          ( 2.00    -1.5986)  ( 2.00    -1.5735)  ( 2.00    -1.5119)  ( 2.00    -1.2849)
                     ( 2.00    -0.9684)  ( 2.00    -0.9650)  ( 2.00    -0.9531)  ( 2.00    -0.9528)
                     ( 2.00    -0.9453)  ( 2.00    -0.9265)  ( 0.00    -0.6111)

 CYCLE   16
  SDIIS (wt  1.000):  0.0000  0.0000 -0.0003 -0.0002  0.0008  0.0049 -0.0198 -0.3054 -0.0757  1.3955
  DIIS coefficients:  0.0000  0.0000 -0.0003 -0.0002  0.0008  0.0049 -0.0198 -0.3054 -0.0757  1.3955
 SCF Error: norm([F,P])=      0.000001276239, max([F,P])=      0.000000588789
 orbitals (Q,E):
 ---------------
 A :44...54          ( 2.00    -1.5986)  ( 2.00    -1.5735)  ( 2.00    -1.5119)  ( 2.00    -1.2849)
                     ( 2.00    -0.9684)  ( 2.00    -0.9650)  ( 2.00    -0.9531)  ( 2.00    -0.9528)
                     ( 2.00    -0.9453)  ( 2.00    -0.9265)  ( 0.00    -0.6111)

 SCF CONVERGED

 CYCLE   17
1
 ***************************************************************************************************



                                                *******************
                                                *  R E S U L T S  *
                                                *******************
  
  
 Hartree-Fock exchange energy:   -102.215841478670     
 *** Using EXACT density in Focky


 *** Use of untested dispersion parameters detected in GrimmeDispersion ***


  SDIIS (wt  1.000):  0.0000 -0.0002 -0.0009  0.0004  0.0060  0.0257 -0.1111 -0.0801  0.1126  1.0476
  DIIS coefficients:  0.0000 -0.0002 -0.0009  0.0004  0.0060  0.0257 -0.1111 -0.0801  0.1126  1.0476
 SCF Error: norm([F,P])=      0.000000755795, max([F,P])=      0.000000170421

 Scaled ZORA Orbital Energies, per Irrep and Spin:
 =================================================
                        Occup              E (au)              E (eV)       Diff (eV) with prev. cycle
                        -----      --------------------        ------       --------------------------
 A
              44        2.000     -0.15986493820083E+01       -43.501               2.40E-06
              45        2.000     -0.15734720598895E+01       -42.816               2.01E-06
              46        2.000     -0.15118884230382E+01       -41.141               1.47E-06
              47        2.000     -0.12848878119751E+01       -34.964               9.90E-07
              48        2.000     -0.96840433793479E+00       -26.352               9.87E-07
              49        2.000     -0.96504477715483E+00       -26.260               1.20E-06
              50        2.000     -0.95306895152116E+00       -25.934               1.41E-06
              51        2.000     -0.95276830605123E+00       -25.926               6.10E-07
              52        2.000     -0.94530008399622E+00       -25.723               5.23E-07
              53        2.000     -0.92646094540630E+00       -25.210               2.01E-06
              54        0.000     -0.61109241471339E+00       -16.629
              55        0.000     -0.61072605016865E+00       -16.619
              56        0.000     -0.59577973737250E+00       -16.212
              57        0.000     -0.59575325927797E+00       -16.211
              58        0.000     -0.53210576949266E+00       -14.479
              59        0.000     -0.53165121949750E+00       -14.467
              60        0.000     -0.50444133383076E+00       -13.727
              61        0.000     -0.49367265423650E+00       -13.434
              62        0.000     -0.49239442243541E+00       -13.399
              63        0.000     -0.39818695169989E+00       -10.835
  
 HOMO :       53 A                -0.92646094540630E+00
 LUMO :       54 A                -0.61109241471339E+00
  


 All Electron Calculation, thus no Orbital Energies of the Core Orbitals are calculated


 Fit test: (difference of exact and fit density, squared integrated, result summed over spins)
         Sum-of-Fragments:                             0.00000785573124
         Orthogonalized Fragments:                     0.00306807086191
         SCF:                                          0.00307043541093



 ==========================
 Electron Density at Nuclei
 ==========================
  
 The electron density is calculated at points on a small sphere around the center of a nucleus.
 The printed electron density is the average electron density on these points.
 The radius of the sphere is the printed approximate finite nuclear radius.
 Note: ZORA-4 density is used, which includes small component density

         Atom        Nuclear Radius (Angstrom)             Electron Density (a.u.)
         ----        -------------------------             -----------------------
     1)   U                 0.0000742428                          4174074.03600
     2)   O                 0.0000345546                              314.29579
     3)   O                 0.0000345546                              314.29583



 =======================================
 M U L L I K E N   P O P U L A T I O N S
 =======================================
  
 The survey below gives for each atom:
 a) the total charge (Z minus electrons)
 b) the net spin polarization (nr of electrons spin-A minus spin-B)
 c) for each spin the atomic electron valence density (integrated) per L-value.

 Atom              Charge    Spin density          S         P         D         F
 ----              ------    ------------       ------    ------    ------    ------
 1 U               2.6271                      11.9870   29.7082   31.2276   16.4500
 2 O              -0.3135                       3.9326    4.3095    0.0656    0.0058
 3 O              -0.3135                       3.9326    4.3095    0.0656    0.0058

 Populations of individual BAS functions
 ----------------------------------------
 1 U            0.0197  0.3716  1.5532  0.0508  1.8773  0.1191  2.0069  1.7798  0.0143  1.4636
                0.8484  1.4009  0.4726  0.0017  0.0098 -0.0027  0.0071  0.0071  0.0071  0.2202
                0.2202  0.2202  1.7784  1.7785  1.7784  1.7806  1.7799  1.7806 -0.3533 -0.3525
               -0.3533  1.5010  1.5009  1.5010  1.0807  1.0816  1.0808  1.4478  1.4391  1.4473
                0.6246  0.6240  0.6246  1.0516  0.9947  1.0532  0.8059  0.6508  0.8003  0.0362
                0.0371  0.0382  0.5542  0.8315  0.8310  0.5546  0.8315  0.5542  0.7705  1.1557
                1.1562  0.7702  1.1557  0.7705  0.8425  1.2651  1.2626  0.8454  1.2653  0.8425
                0.5375  0.8059  0.8075  0.5364  0.8056  0.5374  0.9111  1.3792  1.3662  0.9397
                1.3816  0.9118  0.3928  0.5843  0.5768  0.3844  0.5851  0.3932  0.0557  0.3167
                0.0093  0.2926  0.3384  0.0661 -0.0008  0.0410  0.0019 -0.0104  0.0381  0.0023
                0.0005 -0.0086 -0.0002 -0.0036 -0.0076  0.0000  0.3803  0.7661  0.7585  0.7688
                0.9484  0.7583  0.3938  0.7695  0.7654  0.3802  0.4236  0.8445  0.8469  0.8409
                1.0581  0.8470  0.4139  0.8407  0.8447  0.4236  0.0433  0.1779  0.0120  0.1268
                0.0022  0.0075  0.1223  0.1365  0.1631  0.0425  0.0791  0.2777  0.0306  0.2426
                0.0187  0.0236  0.1454  0.2514  0.2637  0.0782  0.0045  0.0135  0.0016  0.0444
                0.0014  0.0010  0.0061  0.0411  0.0148  0.0034 -0.0084  0.0044 -0.0085
 2 O            0.6759  1.2716  0.0234  1.0694  0.8923  0.2522  0.2640  0.2524  0.8811  0.8653
                0.8805  0.3539  0.2084  0.3518 -0.0037  0.0229  0.0005  0.0259  0.0226 -0.0025
               -0.0086 -0.0080 -0.0030  0.0130  0.0001 -0.0026  0.0175  0.0129 -0.0074 -0.0081
 3 O            0.6759  1.2716  0.0234  1.0694  0.8923  0.2522  0.2640  0.2524  0.8811  0.8653
                0.8805  0.3539  0.2084  0.3518 -0.0037  0.0229  0.0005  0.0259  0.0226 -0.0025
               -0.0086 -0.0080 -0.0030  0.0130  0.0001 -0.0026  0.0175  0.0129 -0.0074 -0.0081

 Gross Charges per Atom (Z minus electrons)
 ==========================================
             2.6271   -0.3135   -0.3135
 Net Total:  2.00000000


 Atom-Atom Population Matrix (off-diagonal elements not doubled)
 ===============================================================

     1 :    88.7108
     2 :     0.3311    7.9825
     3 :     0.3311   -0.0001    7.9825



 =================================================
 H I R S H F E L D   C H A R G E   A N A L Y S I S
 =================================================
  
 For each fragment: the (numerical) integral of rho(scf) * rho(fragment)/rho(sum-of-fragments)
 (nuclear charges are included, electrons are counted negative)

 The fragments and their ordering are defined in the early G E O M E T R Y output section.
 If you use single-atom fragments, this usually implies that all atoms of the same
 chemical type are grouped together. This may not be the order in which you listed them
 in the input file!

    1  U                         2.1988
    2  O                        -0.0994
    3  O                        -0.0994

 Sum of these charges (accuracy NumInt/Tails) =           2.00002884



 =============================
 V O R O N O I   C H A R G E S
 =============================
  
 For each atom: the (numerical) integral of the total electronic charge density in its Voronoi cell,
 i.e. the region of space that is closer to that atom than to any other atom.
 (cf. Wigner-Seitz cells in crystals)

 Within the Voronoi cell the subintegrals over the atomic sphere and the remaining part are evaluated
 separately to give the numbers of electrons (negative charge) in these regions.
 The net total charge in the cell (including the nuclear charge) is also given.

 Values are provided for
    a) the Initial (sum-of-fragments) density
    b) the Orthogonalized-Fragments density
    c) the SCF density
    d) the Voronoi Deformation Density (VDD): the difference SCF-Initial for the complete atomic cell


  Atom                Initial                    OrthFrag                   SCF
             Sphere RestCell NetTotal   Sphere RestCell NetTotal   Sphere RestCell NetTotal      VDD
 -----       ------------------------   ------------------------   ------------------------    -----
    1 U     -75.819  -13.770    2.410  -75.897  -13.806    2.297  -75.683  -12.295    4.022    1.611
    2 O      -4.535   -4.670   -1.205   -4.849   -4.300   -1.149   -4.639   -4.372   -1.011    0.194
    3 O      -4.535   -4.670   -1.205   -4.849   -4.300   -1.149   -4.639   -4.372   -1.011    0.194
 ---------------------------------------------------------------------------------------------------
 Total NetCharge:               0.000                      0.000                      2.000    2.000
 (accuracy NumInt/Tails)

 Remark: the 'NetTotal' Voronoi charges often do not match the Mulliken and/or Hirshfeld charges very
 well. This is caused by the fact that chemically different atoms are not treated in accordance with
 their relative sizes. (Voronoi cells are defined by boundary planes halfway between the atoms.)
 However, the CHANGES in charge, comparing 'Initial' to 'SCF' for instance, do give a fair indication
 of the flow of charge caused by the relaxation from sum-of-fragments to self-consistency.

 Warning: the absolute accuracy of the VDD charges obtained using the Fuzzy Cells (Becke) integration
 scheme is much poorer than the one obtained with an 'equivalent' Voronoi integration grid. 



 =================================================================
 M U L T I P O L E   D E R I V E D   C H A R G E   A N A L Y S I S
 =================================================================

 This charge analysis uses the atomic multipoles (obtained from the fitted density) up to some level X,
 and reconstructs these multipoles exactly (up to level X) by distributing charges over all atoms.
 This is achieved by using Lagrange multipliers and a weight function to keep the multipoles local.

 Dummy atoms can be included (by setting INCDUM in MDC-block to 1) to obtain a fractional charge.
 This is generally useful and necessary only for small symmetrical molecules, when there are not
 enough degrees of freedom to reconstruct the multipoles.

 Since the atomic multipoles are reconstructed up to level X,
 the molecular multipoles are represented also up to level X.
 The recommended level is to reconstruct up to quadrupole : -> MDC-q charges.

 See: M. Swart, P.Th. van Duijnen, J.G. Snijders, J.Comput.Chem., (2001), p. 79-88.

 ------------------------------------------------------------- 
 Atomic electronic multipole moments from SCF equations (a.u.)
 ------------------------------------------------------------- 

   atom        charge        dip-x     dip-y     dip-z      quad-xx   quad-xy   quad-xz   quad-yy   quad-yz   quad-zz
 --------------------------------------------------------------------------------------------------------------------
    1 U      3.466080     0.000000  0.000000  0.246788    -0.694997  0.000000  0.000000  1.366267 -0.000000 -0.671270
    2 O     -0.733040     0.000000  0.656020  0.114127    -0.082538 -0.000000 -0.000000  0.171191  0.006590 -0.088652
    3 O     -0.733040    -0.000000 -0.656020  0.114127    -0.082538 -0.000000 -0.000000  0.171191 -0.006590 -0.088652

 --------------------------------------- 
 Multipole derived atomic charges (a.u.)
 --------------------------------------- 

 The MDC-m charges are just the Monopole terms in the multipole expansion, while for the MDC-d charges
 also the Dipoles are reconstructed. The usually preferred charges are the MDC-q charges.
 These reconstruct the Monopoles, Dipoles and Quadrupoles (both atomic AND molecular).

        Atom    Level:     MDC-m        MDC-d        MDC-q
 ---------------------------------------------------------
     1     U            3.466080     2.514544     3.252781
     2     O           -0.733040    -0.257272    -0.626390
     3     O           -0.733040    -0.257272    -0.626390

 ------------------------------------------------ 
 Average absolute deviations in atomic multipoles
 ------------------------------------------------ 

 Stated here are the average differences between the atomic multipoles
 and the reconstructed atomic multipoles (from the distributed charges).
 If these values are not zero, this means there are not enough degrees of freedom,
 to be able to reconstruct the atomic multipoles. (This usually happens only
 for small and/or highly symmetric molecules). If this is the case, one could add
 dummy atoms as extra point charges (and setting INCDUM in MDC-block to 1).

 Level:                                 MDC-d        MDC-q
 ---------------------------------------------------------
 Charge   (a.u.)                       0.0000       0.0000
 Dipole   (Debye)                      0.0000       0.4448
 Quad.    (a.u.)                       0.9354       0.0271

 --------------------------------------- 
 Represented molecular multipole moments
 --------------------------------------- 

 Given here are the Molecular multipole moments from the atomic charges, and from the Fit Density.
 Note that the atomic charges represent the latter, NOT the ones from the Exact density.

            Q (a.u.)             Dipole moment (Debye)                                          Quadrupole moment (a.u.)
                                 x         y         z              xx        xy        xz        yy        yz        zz
------------------------------------------------------------------------------------------------------------------------
MDC-m         2.0000        0.0000    0.0000   -3.5523          7.6986    0.0000    0.0000  -15.9123    0.0000    8.2136
MDC-d         2.0000        0.0000    0.0000   -2.3448          2.6301    0.0000    0.0000   -5.6566    0.0000    3.0265
MDC-q         2.0000        0.0000    0.0000   -3.2816          6.5624    0.0000    0.0000  -13.6133    0.0000    7.0509
 
Fit.Dens.     2.0000        0.0000    0.0000   -2.3448          2.5836    0.0000    0.0000   -5.5612   -0.0000    2.9776



 =============
 Dipole Moment  ***  (Debye)  ***
 =============
  
 Vector   :         0.00000003      0.00000254     -2.34521314
 Magnitude:         2.34521314

 This molecular dipole moment is calculated with analytic integration
 ************************************************************************************
 Since the molecule is NOT NEUTRAL, the dipole moment depends on the choice of origin
 ************************************************************************************



 =========================================
 Quadrupole Moment (Buckingham convention)  ***  (a.u.)  ***
 =========================================
  
      quad-xx        quad-xy        quad-xz        quad-yy        quad-yz        quad-zz
      2.58377393     0.00000051     0.00000025    -5.56240957    -0.00000017     2.97863564

 This molecular quadrupole moment is calculated with analytic integration
1



 ===========================
 B O N D I N G   E N E R G Y  ***  (decomposition)  ***
 ===========================
  
*** IMPORTANT NOTE ***

The bond energy is computed as an energy difference between molecule and
fragments. In particular when the fragments are single atoms, they are usually
computed as SPHERICALLY SYMMETRIC and SPIN-RESTRICTED. Obviously, this usually
does NOT represent the true atomic groundstate.

To obtain the 'real' bond energy, (atomic) correction terms must be applied
for the true (multiplet) fragment ground state. See ref: E.J.Baerends,
V.Branchadell, M.Sodupe, Chem.Phys.Lett.265 (1997) 481

General theoretical background on the bond energy decomposition scheme used
here (Morokuma-Ziegler) can be found in the review paper:
F.M. Bickelhaupt and E.J. Baerends,
"Kohn-Sham Density Functional Theory: Predicting and Understanding Chemistry"
In: Rev. Comput. Chem.; Lipkowitz, K. B. and Boyd, D. B., Eds.;
Wiley-VCH: New York, 2000, Vol. 15, 1-86.

Symbols used in the Bickelhaupt-Baerends (BB) paper are given below to make
the direct connection to that paper, where detailed explanations can be found
on the meaning of the various terms.


                                                   hartree              eV         kcal/mol           kJ/mol
                                      --------------------     -----------       ----------      -----------

Pauli Repulsion
  Kinetic (Delta T^0):                  12.850069721714819        349.6682          8063.54         33737.85
  Delta V^Pauli Coulomb:                -8.995515661722623       -244.7804         -5644.77        -23617.72
  Delta V^Pauli LDA-XC:                 -1.118571994982309        -30.4379          -701.91         -2936.81
[...]
   i, eigenvalue(i) in dvdson     3    0.8539683790E-01
   i, eigenvalue(i) in dvdson     4    0.8543055388E-01
   i, eigenvalue(i) in dvdson     5    0.1374901463E+00
   i, eigenvalue(i) in dvdson     6    0.1378500036E+00
   i, eigenvalue(i) in dvdson     7    0.1398013570E+00
   i, eigenvalue(i) in dvdson     8    0.1401606981E+00
   i, eigenvalue(i) in dvdson     9    0.1539044787E+00
   i, eigenvalue(i) in dvdson    10    0.1543639955E+00
   i, eigenvalue(i) in dvdson    11    0.1569665555E+00
   i, eigenvalue(i) in dvdson    12    0.1570758778E+00
   i, eigenvalue(i) in dvdson    13    0.1607619079E+00
   i, eigenvalue(i) in dvdson    14    0.1611430028E+00
   i, eigenvalue(i) in dvdson    15    0.1741836096E+00
   i, eigenvalue(i) in dvdson    16    0.1746900329E+00
Eigenvalues of small (approximate) problem
   i, eigenvalue(i) in dvdson     1    0.7737797726E-01
   i, eigenvalue(i) in dvdson     2    0.7775946258E-01
   i, eigenvalue(i) in dvdson     3    0.8532492870E-01
   i, eigenvalue(i) in dvdson     4    0.8535779027E-01
   i, eigenvalue(i) in dvdson     5    0.1374884497E+00
   i, eigenvalue(i) in dvdson     6    0.1378408761E+00
   i, eigenvalue(i) in dvdson     7    0.1397760580E+00
   i, eigenvalue(i) in dvdson     8    0.1401564549E+00
   i, eigenvalue(i) in dvdson     9    0.1524005739E+00
   i, eigenvalue(i) in dvdson    10    0.1527350271E+00
   i, eigenvalue(i) in dvdson    11    0.1538827921E+00
   i, eigenvalue(i) in dvdson    12    0.1544979611E+00
   i, eigenvalue(i) in dvdson    13    0.1607614037E+00
   i, eigenvalue(i) in dvdson    14    0.1611382762E+00
   i, eigenvalue(i) in dvdson    15    0.1720612955E+00
   i, eigenvalue(i) in dvdson    16    0.1722485968E+00
 collapse basis         104          32
Eigenvalues of small (approximate) problem
   i, eigenvalue(i) in dvdson     1    0.7737780896E-01
   i, eigenvalue(i) in dvdson     2    0.7775939472E-01
   i, eigenvalue(i) in dvdson     3    0.8532432266E-01
   i, eigenvalue(i) in dvdson     4    0.8535758168E-01
   i, eigenvalue(i) in dvdson     5    0.1374835861E+00
   i, eigenvalue(i) in dvdson     6    0.1378407738E+00
   i, eigenvalue(i) in dvdson     7    0.1397760170E+00
   i, eigenvalue(i) in dvdson     8    0.1401471634E+00
   i, eigenvalue(i) in dvdson     9    0.1521548661E+00
   i, eigenvalue(i) in dvdson    10    0.1525398909E+00
   i, eigenvalue(i) in dvdson    11    0.1538818096E+00
   i, eigenvalue(i) in dvdson    12    0.1544862234E+00
   i, eigenvalue(i) in dvdson    13    0.1607609198E+00
   i, eigenvalue(i) in dvdson    14    0.1611382255E+00
   i, eigenvalue(i) in dvdson    15    0.1713599417E+00
   i, eigenvalue(i) in dvdson    16    0.1721416072E+00
Eigenvalues of small (approximate) problem
   i, eigenvalue(i) in dvdson     1    0.7737749647E-01
   i, eigenvalue(i) in dvdson     2    0.7775909126E-01
   i, eigenvalue(i) in dvdson     3    0.8532253284E-01
   i, eigenvalue(i) in dvdson     4    0.8535619437E-01
   i, eigenvalue(i) in dvdson     5    0.1374786878E+00
   i, eigenvalue(i) in dvdson     6    0.1378394341E+00
   i, eigenvalue(i) in dvdson     7    0.1397748029E+00
   i, eigenvalue(i) in dvdson     8    0.1401374670E+00
   i, eigenvalue(i) in dvdson     9    0.1521059049E+00
   i, eigenvalue(i) in dvdson    10    0.1524566877E+00
   i, eigenvalue(i) in dvdson    11    0.1538794252E+00
   i, eigenvalue(i) in dvdson    12    0.1544711555E+00
   i, eigenvalue(i) in dvdson    13    0.1607575646E+00
   i, eigenvalue(i) in dvdson    14    0.1611369845E+00
   i, eigenvalue(i) in dvdson    15    0.1682559916E+00
   i, eigenvalue(i) in dvdson    16    0.1720941694E+00
Eigenvalues of small (approximate) problem
   i, eigenvalue(i) in dvdson     1    0.7737749386E-01
   i, eigenvalue(i) in dvdson     2    0.7775909046E-01
   i, eigenvalue(i) in dvdson     3    0.8532253086E-01
   i, eigenvalue(i) in dvdson     4    0.8535619332E-01
   i, eigenvalue(i) in dvdson     5    0.1374786756E+00
   i, eigenvalue(i) in dvdson     6    0.1378394266E+00
   i, eigenvalue(i) in dvdson     7    0.1397747998E+00
   i, eigenvalue(i) in dvdson     8    0.1401374565E+00
   i, eigenvalue(i) in dvdson     9    0.1520660618E+00
   i, eigenvalue(i) in dvdson    10    0.1524487844E+00
   i, eigenvalue(i) in dvdson    11    0.1538785092E+00
   i, eigenvalue(i) in dvdson    12    0.1544694702E+00
   i, eigenvalue(i) in dvdson    13    0.1607575389E+00
   i, eigenvalue(i) in dvdson    14    0.1611369768E+00
   i, eigenvalue(i) in dvdson    15    0.1653959667E+00
   i, eigenvalue(i) in dvdson    16    0.1691716007E+00
 collapse basis         104          32
Eigenvalues of small (approximate) problem
   i, eigenvalue(i) in dvdson     1    0.7737749023E-01
   i, eigenvalue(i) in dvdson     2    0.7775909028E-01
   i, eigenvalue(i) in dvdson     3    0.8532251078E-01
   i, eigenvalue(i) in dvdson     4    0.8535619264E-01
   i, eigenvalue(i) in dvdson     5    0.1374785637E+00
   i, eigenvalue(i) in dvdson     6    0.1378394231E+00
   i, eigenvalue(i) in dvdson     7    0.1397747964E+00
   i, eigenvalue(i) in dvdson     8    0.1401373793E+00
   i, eigenvalue(i) in dvdson     9    0.1520628111E+00
   i, eigenvalue(i) in dvdson    10    0.1524487400E+00
   i, eigenvalue(i) in dvdson    11    0.1538784432E+00
   i, eigenvalue(i) in dvdson    12    0.1544694149E+00
   i, eigenvalue(i) in dvdson    13    0.1607571982E+00
   i, eigenvalue(i) in dvdson    14    0.1611369721E+00
   i, eigenvalue(i) in dvdson    15    0.1653872636E+00
   i, eigenvalue(i) in dvdson    16    0.1678704594E+00
Eigenvalues of small (approximate) problem
   i, eigenvalue(i) in dvdson     1    0.7737748921E-01
   i, eigenvalue(i) in dvdson     2    0.7775908576E-01
   i, eigenvalue(i) in dvdson     3    0.8532237843E-01
   i, eigenvalue(i) in dvdson     4    0.8535612307E-01
   i, eigenvalue(i) in dvdson     5    0.1374782053E+00
   i, eigenvalue(i) in dvdson     6    0.1378392012E+00
   i, eigenvalue(i) in dvdson     7    0.1397747011E+00
   i, eigenvalue(i) in dvdson     8    0.1401363213E+00
   i, eigenvalue(i) in dvdson     9    0.1520600699E+00
   i, eigenvalue(i) in dvdson    10    0.1524483885E+00
   i, eigenvalue(i) in dvdson    11    0.1538783379E+00
   i, eigenvalue(i) in dvdson    12    0.1544687464E+00
   i, eigenvalue(i) in dvdson    13    0.1607561092E+00
   i, eigenvalue(i) in dvdson    14    0.1611365503E+00
   i, eigenvalue(i) in dvdson    15    0.1653071106E+00
   i, eigenvalue(i) in dvdson    16    0.1667471872E+00
Eigenvalues of small (approximate) problem
   i, eigenvalue(i) in dvdson     1    0.7737748920E-01
   i, eigenvalue(i) in dvdson     2    0.7775908574E-01
   i, eigenvalue(i) in dvdson     3    0.8532235532E-01
   i, eigenvalue(i) in dvdson     4    0.8535612197E-01
   i, eigenvalue(i) in dvdson     5    0.1374781920E+00
   i, eigenvalue(i) in dvdson     6    0.1378391897E+00
   i, eigenvalue(i) in dvdson     7    0.1397746977E+00
   i, eigenvalue(i) in dvdson     8    0.1401361686E+00
   i, eigenvalue(i) in dvdson     9    0.1520597950E+00
   i, eigenvalue(i) in dvdson    10    0.1524483155E+00
   i, eigenvalue(i) in dvdson    11    0.1538783348E+00
   i, eigenvalue(i) in dvdson    12    0.1544687375E+00
   i, eigenvalue(i) in dvdson    13    0.1607550157E+00
   i, eigenvalue(i) in dvdson    14    0.1611365067E+00
   i, eigenvalue(i) in dvdson    15    0.1652867657E+00
   i, eigenvalue(i) in dvdson    16    0.1666609230E+00
 collapse basis         104          32
Eigenvalues of small (approximate) problem
   i, eigenvalue(i) in dvdson     1    0.7737748919E-01
   i, eigenvalue(i) in dvdson     2    0.7775908572E-01
   i, eigenvalue(i) in dvdson     3    0.8532235507E-01
   i, eigenvalue(i) in dvdson     4    0.8535612180E-01
   i, eigenvalue(i) in dvdson     5    0.1374781899E+00
   i, eigenvalue(i) in dvdson     6    0.1378391876E+00
   i, eigenvalue(i) in dvdson     7    0.1397746967E+00
   i, eigenvalue(i) in dvdson     8    0.1401361603E+00
   i, eigenvalue(i) in dvdson     9    0.1520597925E+00
   i, eigenvalue(i) in dvdson    10    0.1524483115E+00
   i, eigenvalue(i) in dvdson    11    0.1538783345E+00
   i, eigenvalue(i) in dvdson    12    0.1544687329E+00
   i, eigenvalue(i) in dvdson    13    0.1607550038E+00
   i, eigenvalue(i) in dvdson    14    0.1611364978E+00
   i, eigenvalue(i) in dvdson    15    0.1652862025E+00
   i, eigenvalue(i) in dvdson    16    0.1666600411E+00


**************************************************************************
*                                                                        *
*   Final excitation energies from Davidson algorithm                    *
*                                                                        *
**************************************************************************

    Number of loops in Davidson routine     =   11                    
    Number of matrix-vector multiplications =  280                    
    Type of excitations = SINGLET-TRIPLET                                 
                                                                          

 Symmetry A    

 Excitation energies E in a.u. and eV, dE wrt prev. cycle,
 oscillator strengths f in a.u.

 no.  E/a.u.        E/eV      f           dE/a.u.
 -----------------------------------------------------
   1 0.77377E-01  2.1055      0.0000      0.48E-11
   2 0.77759E-01  2.1159      0.0000      0.15E-10
   3 0.85322E-01  2.3217      0.0000      0.25E-09
   4 0.85356E-01  2.3227      0.0000      0.17E-09
   5 0.13748      3.7410      0.0000      0.20E-08
   6 0.13784      3.7508      0.0000      0.21E-08
   7 0.13977      3.8035      0.0000      0.11E-08
   8 0.14014      3.8133      0.0000      0.83E-08
   9 0.15206      4.1378      0.0000      0.25E-08
  10 0.15245      4.1483      0.0000      0.40E-08
  11 0.15388      4.1872      0.0000      0.28E-09
  12 0.15447      4.2033      0.0000      0.46E-08
  13 0.16076      4.3744      0.0000      0.12E-07
  14 0.16114      4.3847      0.0000      0.90E-08
  15 0.16529      4.4977      0.0000      0.56E-06
  16 0.16666      4.5351      0.0000      0.88E-06
 
                                                        
 Major MO -> MO transitions for the above excitations   
                                                        
    Excitation  Occupied to virtual  Contribution       

     Nr.          orbitals           weight        contributions to     
                                     (sum=1) transition dipole moment   
                                              x       y       z       


     1:  53a       ->  54a          0.9598
     1:  48a       ->  54a          0.0274
     1:  47a       ->  54a          0.0093
     1:  53a       ->  78a          0.0009
     1:  50a       ->  56a          0.0009


     2:  53a       ->  55a          0.9598
     2:  48a       ->  55a          0.0273
     2:  47a       ->  55a          0.0093
     2:  53a       ->  79a          0.0009
     2:  50a       ->  57a          0.0009


     3:  53a       ->  56a          0.9590
     3:  48a       ->  56a          0.0243
     3:  47a       ->  56a          0.0101
     3:  52a       ->  62a          0.0012
     3:  50a       ->  54a          0.0011
     3:  53a       ->  76a          0.0010
     3:  51a       ->  55a          0.0009
     3:  50a       ->  62a          0.0006


     4:  53a       ->  57a          0.9587
     4:  48a       ->  57a          0.0246
     4:  47a       ->  57a          0.0101
     4:  52a       ->  61a          0.0014
     4:  50a       ->  55a          0.0011
     4:  53a       ->  77a          0.0010
     4:  51a       ->  54a          0.0010
     4:  50a       ->  61a          0.0006


     5:  50a       ->  54a          0.8009
     5:  52a       ->  54a          0.1764
     5:  51a       ->  55a          0.0181
     5:  46a       ->  54a          0.0011
     5:  53a       ->  56a          0.0009
     5:  44a       ->  54a          0.0006


     6:  50a       ->  55a          0.7872
     6:  52a       ->  55a          0.1737
     6:  51a       ->  54a          0.0347
     6:  46a       ->  55a          0.0011
     6:  53a       ->  57a          0.0008
     6:  44a       ->  55a          0.0006


     7:  51a       ->  54a          0.9603
     7:  50a       ->  55a          0.0275
     7:  52a       ->  55a          0.0061
     7:  53a       ->  57a          0.0015
     7:  45a       ->  54a          0.0013
     7:  50a       ->  58a          0.0009
     7:  49a       ->  56a          0.0005


     8:  51a       ->  55a          0.9769
     8:  50a       ->  54a          0.0143
     8:  52a       ->  54a          0.0031
     8:  53a       ->  56a          0.0014
     8:  45a       ->  55a          0.0014
     8:  50a       ->  59a          0.0007
     8:  49a       ->  57a          0.0005


     9:  50a       ->  56a          0.7864
     9:  52a       ->  56a          0.2009
     9:  48a       ->  62a          0.0065
     9:  53a       ->  62a          0.0007
     9:  53a       ->  54a          0.0007
     9:  50a       ->  67a          0.0006
     9:  48a       ->  54a          0.0006
     9:  48a       ->  59a          0.0005
     9:  50a       ->  63a          0.0004
     9:  48a       ->  60a          0.0004
     9:  46a       ->  56a          0.0003


    10:  50a       ->  57a          0.7322
    10:  52a       ->  57a          0.1860
    10:  51a       ->  56a          0.0706
    10:  48a       ->  61a          0.0051
    10:  53a       ->  55a          0.0011
    10:  49a       ->  62a          0.0008
    10:  53a       ->  58a          0.0008
    10:  49a       ->  54a          0.0006
    10:  53a       ->  61a          0.0006
    10:  50a       ->  64a          0.0005


    11:  51a       ->  57a          0.9827
    11:  49a       ->  61a          0.0084
    11:  53a       ->  59a          0.0026
    11:  49a       ->  55a          0.0015
    11:  51a       ->  64a          0.0012
    11:  49a       ->  58a          0.0008
    11:  53a       ->  54a          0.0008


    12:  51a       ->  56a          0.9054
    12:  50a       ->  57a          0.0521
    12:  52a       ->  57a          0.0176
    12:  53a       ->  58a          0.0155
    12:  49a       ->  62a          0.0048
    12:  49a       ->  54a          0.0012
    12:  49a       ->  60a          0.0008
    12:  53a       ->  61a          0.0004
    12:  53a       ->  55a          0.0004


    13:  52a       ->  54a          0.8174
    13:  50a       ->  54a          0.1780
    13:  46a       ->  54a          0.0016
    13:  50a       ->  62a          0.0006
    13:  51a       ->  61a          0.0005


    14:  52a       ->  55a          0.8171
    14:  50a       ->  55a          0.1784
    14:  46a       ->  55a          0.0016
    14:  50a       ->  61a          0.0008
    14:  51a       ->  62a          0.0004


    15:  53a       ->  58a          0.8952
    15:  53a       ->  61a          0.0369
    15:  48a       ->  58a          0.0183
    15:  51a       ->  56a          0.0124
    15:  50a       ->  57a          0.0081
    15:  52a       ->  64a          0.0062
    15:  49a       ->  54a          0.0051
    15:  50a       ->  64a          0.0036
    15:  48a       ->  55a          0.0032
    15:  53a       ->  65a          0.0029
    15:  52a       ->  57a          0.0027
    15:  47a       ->  58a          0.0022
    15:  48a       ->  61a          0.0005
    15:  53a       ->  95a          0.0003
    15:  49a       ->  59a          0.0002
    15:  51a       ->  63a          0.0002


    16:  53a       ->  59a          0.9043
    16:  53a       ->  62a          0.0453
    16:  48a       ->  59a          0.0093
    16:  52a       ->  56a          0.0087
    16:  50a       ->  67a          0.0042
    16:  48a       ->  54a          0.0038
    16:  50a       ->  56a          0.0032
    16:  49a       ->  55a          0.0029
    16:  51a       ->  57a          0.0027
    16:  52a       ->  67a          0.0027
    16:  53a       ->  66a          0.0026
    16:  52a       ->  63a          0.0025
    16:  47a       ->  59a          0.0020
    16:  50a       ->  63a          0.0017
    16:  48a       ->  62a          0.0006
    16:  53a       ->  60a          0.0003
    16:  50a       ->  68a          0.0003
    16:  53a       ->  92a          0.0003
    16:  48a       ->  60a          0.0002
    16:  49a       ->  58a          0.0002
 

 All SINGLET-TRIPLET excitation energies 

 no.     E/a.u.        E/eV      f           tau/s        Symmetry
 ------------------------------------------------------------------
   1:     0.07738      2.10555    0.000                   A           
   2:     0.07776      2.11593    0.000                   A           
   3:     0.08532      2.32174    0.000                   A           
   4:     0.08536      2.32266    0.000                   A           
   5:     0.13748      3.74097    0.000                   A           
   6:     0.13784      3.75080    0.000                   A           
   7:     0.13977      3.80346    0.000                   A           
   8:     0.14014      3.81330    0.000                   A           
   9:     0.15206      4.13776    0.000                   A           
  10:     0.15245      4.14833    0.000                   A           
  11:     0.15388      4.18724    0.000                   A           
  12:     0.15447      4.20331    0.000                   A           
  13:     0.16076      4.37437    0.000                   A           
  14:     0.16114      4.38475    0.000                   A           
  15:     0.16529      4.49767    0.000                   A           
  16:     0.16666      4.53505    0.000                   A           

 tau: electric dipole radiative lifetime (in seconds)

 Unrelaxed approximate excited state dipole moments

 no.       E/eV     Excited state dipole moment (Debye)   Symmetry
 ------------------------------------------------------------------
   1:      2.10555    -0.00001    -0.00000    -2.14673    A
   2:      2.11593     0.00001    -0.00000    -2.14272    A
   3:      2.32174     0.00002    -0.00008    -1.96235    A
   4:      2.32266    -0.00000     0.00027    -1.96788    A
   5:      3.74097     0.00004    -0.00018    -1.67898    A
   6:      3.75080    -0.00010     0.00103    -1.67256    A
   7:      3.80346    -0.00003     0.00022    -1.52639    A
   8:      3.81330    -0.00004     0.00242    -1.51858    A
   9:      4.13776    -0.00009     0.00172    -1.47455    A
  10:      4.14833    -0.00005     0.00076    -1.44990    A
  11:      4.18724    -0.00001     0.00045    -1.33234    A
  12:      4.20331     0.00012    -0.00211    -1.32283    A
  13:      4.37437    -0.00015     0.00008    -0.97757    A
  14:      4.38475    -0.00021    -0.00078    -0.97187    A
  15:      4.49767    -0.00259    -0.00919    -2.64016    A
  16:      4.53505    -0.00010     0.01549    -2.60919    A


 Normal termination of EXCITATION program part





 =======================================================================
 Electrostatic potential at the Nuclei due to electrons and other nuclei
 =======================================================================
  
         Atom                  Potential
         ----                  ---------
     1)   U                 802.77092267
     2)   O                  21.86759159
     3)   O                  21.86759164
 Mulliken charges used for AMS results%charges...


    =====================
     CALCULATION RESULTS
    =====================

Energy (hartree)            -0.73395442


--------------
Atomic charges
--------------
  Index   Atom    Charge
      1      U    2.6271
      2      O   -0.3135
      3      O   -0.3135


Dipole moment vector    (Debye):     0.00000003    0.00000254   -2.34521314
              magnitude (Debye):     2.34521314


AMS application finished. Exiting.
NORMAL TERMINATION
     Total cpu time:    1796.62
  Total system time:     129.29
 Total elapsed time:    1926.98
