 Entering Gaussian System, Link 0=/home/pcmt/gaussian/g16.C.01/g16/g16
 AtFile(1): /home/vallet/basis/U-ECP60MWB_SEG
 AtFile(1): /home/vallet/basis/U-ECP60MWB
 Initial command:
 /home/pcmt/gaussian/g16.C.01/g16/l1.exe "/state/partition2/vallet/848282.phlam-s-sakura/Gau-38571.inp" -scrdir="/state/partition2/vallet/848282.phlam-s-sakura/"
 Entering Link 1 = /home/pcmt/gaussian/g16.C.01/g16/l1.exe PID=     38572.
  
 Copyright (c) 1988-2019, Gaussian, Inc.  All Rights Reserved.
  
 This is part of the Gaussian(R) 16 program.  It is based on
 the Gaussian(R) 09 system (copyright 2009, Gaussian, Inc.),
 the Gaussian(R) 03 system (copyright 2003, Gaussian, Inc.),
 the Gaussian(R) 98 system (copyright 1998, Gaussian, Inc.),
 the Gaussian(R) 94 system (copyright 1995, Gaussian, Inc.),
 the Gaussian 92(TM) system (copyright 1992, Gaussian, Inc.),
 the Gaussian 90(TM) system (copyright 1990, Gaussian, Inc.),
 the Gaussian 88(TM) system (copyright 1988, Gaussian, Inc.),
 the Gaussian 86(TM) system (copyright 1986, Carnegie Mellon
 University), and the Gaussian 82(TM) system (copyright 1983,
 Carnegie Mellon University). Gaussian is a federally registered
 trademark of Gaussian, Inc.
  
 This software contains proprietary and confidential information,
 including trade secrets, belonging to Gaussian, Inc.
  
 This software is provided under written license and may be
 used, copied, transmitted, or stored only in accord with that
 written license.
  
 The following legend is applicable only to US Government
 contracts under FAR:
  
                    RESTRICTED RIGHTS LEGEND
  
 Use, reproduction and disclosure by the US Government is
 subject to restrictions as set forth in subparagraphs (a)
 and (c) of the Commercial Computer Software - Restricted
 Rights clause in FAR 52.227-19.
  
 Gaussian, Inc.
 340 Quinnipiac St., Bldg. 40, Wallingford CT 06492
  
  
 ---------------------------------------------------------------
 Warning -- This program may not be used in any manner that
 competes with the business of Gaussian, Inc. or will provide
 assistance to any competitor of Gaussian, Inc.  The licensee
 of this program is prohibited from giving any competitor of
 Gaussian, Inc. access to this program.  By using this program,
 the user acknowledges that Gaussian, Inc. is engaged in the
 business of creating and licensing software in the field of
 computational chemistry and represents and warrants to the
 licensee that it is not a competitor of Gaussian, Inc. and that
 it will not use this program in any manner prohibited above.
 ---------------------------------------------------------------
  

 Cite this work as:
 Gaussian 16, Revision C.01,
 M. J. Frisch, G. W. Trucks, H. B. Schlegel, G. E. Scuseria, 
 M. A. Robb, J. R. Cheeseman, G. Scalmani, V. Barone, 
 G. A. Petersson, H. Nakatsuji, X. Li, M. Caricato, A. V. Marenich, 
 J. Bloino, B. G. Janesko, R. Gomperts, B. Mennucci, H. P. Hratchian, 
 J. V. Ortiz, A. F. Izmaylov, J. L. Sonnenberg, D. Williams-Young, 
 F. Ding, F. Lipparini, F. Egidi, J. Goings, B. Peng, A. Petrone, 
 T. Henderson, D. Ranasinghe, V. G. Zakrzewski, J. Gao, N. Rega, 
 G. Zheng, W. Liang, M. Hada, M. Ehara, K. Toyota, R. Fukuda, 
 J. Hasegawa, M. Ishida, T. Nakajima, Y. Honda, O. Kitao, H. Nakai, 
 T. Vreven, K. Throssell, J. A. Montgomery, Jr., J. E. Peralta, 
 F. Ogliaro, M. J. Bearpark, J. J. Heyd, E. N. Brothers, K. N. Kudin, 
 V. N. Staroverov, T. A. Keith, R. Kobayashi, J. Normand, 
 K. Raghavachari, A. P. Rendell, J. C. Burant, S. S. Iyengar, 
 J. Tomasi, M. Cossi, J. M. Millam, M. Klene, C. Adamo, R. Cammi, 
 J. W. Ochterski, R. L. Martin, K. Morokuma, O. Farkas, 
 J. B. Foresman, and D. J. Fox, Gaussian, Inc., Wallingford CT, 2019.
 
 ******************************************
 Gaussian 16:  ES64L-G16RevC.01  3-Jul-2019
                12-Jan-2022 
 ******************************************
 %mem=8000Mb
 %NProc=4
 Will use up to    4 processors via shared memory.
 %chk=gs-uo2_cl2.pbe0-d3.QTAIM.chk
 ----------------------------------------------------------------------
 #p PBE1PBE/GEN GFInput GFPrint 5D 7F IOP(6/7=3, 4/69=2, 6/10=1) Pseudo
 =Read EmpiricalDispersion=GD3BJ Symm=(Loose) Int=(UltraFine) Guess=(Ch
 eckPoint) Geom=CheckPoint Scf=(NoVarAcc,MaxCycle=100,conver=8) Output=
 WFX
 ----------------------------------------------------------------------
 1/29=2,38=1,172=1/1;
 2/12=2,17=4,18=3,40=1/2;
 3/5=7,8=11,11=2,14=-4,16=1,17=8,24=110,25=1,30=1,74=-13,75=-5,116=-2,124=41/1,2,3;
 4/5=1,69=2/1;
 5/5=2,6=8,7=100,38=6/2;
 6/7=3,8=2,9=2,10=1,28=1/1;
 99/5=1,6=200,9=1/99;
 Leave Link    1 at Wed Jan 12 14:50:23 2022, MaxMem=  1048576000 cpu:               0.5 elap:               0.2
 (Enter /home/pcmt/gaussian/g16.C.01/g16/l101.exe)
 ---------------------------
 [UO2Cl4]2- - PBE0+D3BJ - GS
 ---------------------------
 Structure from the checkpoint file:  "gs-uo2_cl2.pbe0-d3.QTAIM.chk"
 Charge =  0 Multiplicity = 1
 Redundant internal coordinates found in file.  (old form).
 U,0,0.,0.2485734008,0.
 O,0,-1.7216134772,0.450053995,0.
 O,0,1.7216134772,0.450053995,0.
 Cl,0,0.,-1.2218361514,-2.030575914
 Cl,0,0.,-1.2218361514,2.030575914
 Recover connectivity data from disk.
 ITRead=  0  0  0  0  0
 MicOpt= -1 -1 -1 -1 -1
                           ----------------------------
                           !    Current Parameters    !
                           ! (Angstroms and Degrees)  !
 --------------------------                            --------------------------
 ! Name  Definition              Value                                          !
 --------------------------------------------------------------------------------
 ! R1    R(1,2)                  1.7334                                         !
 ! R2    R(1,3)                  1.7334                                         !
 ! R3    R(1,4)                  2.5071                                         !
 ! R4    R(1,5)                  2.5071                                         !
 ! A1    A(2,1,4)               93.9091                                         !
 ! A2    A(2,1,5)               93.9091                                         !
 ! A3    A(3,1,4)               93.9091                                         !
 ! A4    A(3,1,5)               93.9091                                         !
 ! A5    A(4,1,5)              108.1808                                         !
 ! A6    L(2,1,3,4,-1)         187.8182                                         !
 ! A7    L(2,1,3,4,-2)         169.1705                                         !
 ! D1    D(2,1,5,4)             95.4148                                         !
 ! D2    D(3,1,5,4)            -95.4148                                         !
 --------------------------------------------------------------------------------
 NAtoms=      5 NQM=        5 NQMF=       0 NMMI=      0 NMMIF=      0
                NMic=       0 NMicF=      0.
                    Isotopes and Nuclear Properties:
 (Nuclear quadrupole moments (NQMom) in fm**2, nuclear magnetic moments (NMagM)
  in nuclear magnetons)

  Atom         1           2           3           4           5
 IAtWgt=         238          16          16          35          35
 AtmWgt= 238.0508000  15.9949146  15.9949146  34.9688527  34.9688527
 NucSpn=           0           0           0           3           3
 AtZEff=   0.0000000   5.6000000   5.6000000  14.2400000  14.2400000
 NQMom=    0.0000000   0.0000000   0.0000000  -8.1650000  -8.1650000
 NMagM=    0.0000000   0.0000000   0.0000000   0.8218740   0.8218740
 AtZNuc=  92.0000000   8.0000000   8.0000000  17.0000000  17.0000000
 Leave Link  101 at Wed Jan 12 14:50:24 2022, MaxMem=  1048576000 cpu:               0.6 elap:               0.4
 (Enter /home/pcmt/gaussian/g16.C.01/g16/l202.exe)
                          Input orientation:                          
 ---------------------------------------------------------------------
 Center     Atomic      Atomic             Coordinates (Angstroms)
 Number     Number       Type             X           Y           Z
 ---------------------------------------------------------------------
      1         92           0        0.000000    0.248573   -0.000000
      2          8           0       -1.721613    0.450054   -0.000000
      3          8           0        1.721613    0.450054    0.000000
      4         17           0       -0.000000   -1.221836   -2.030576
      5         17           0       -0.000000   -1.221836    2.030576
 ---------------------------------------------------------------------
                    Distance matrix (angstroms):
                    1          2          3          4          5
     1  U    0.000000
     2  O    1.733363   0.000000
     3  O    1.733363   3.443227   0.000000
     4  Cl   2.507059   3.143630   3.143630   0.000000
     5  Cl   2.507059   3.143630   3.143630   4.061152   0.000000
 Stoichiometry    Cl2O2U
 Framework group  C2V[C2(U),SGV(O2),SGV'(Cl2)]
 Deg. of freedom     4
 Full point group                 C2V     NOp   4
 RotChk:  IX=0 Diff= 9.77D-15
 Largest Abelian subgroup         C2V     NOp   4
 Largest concise Abelian subgroup C2V     NOp   4
                         Standard orientation:                         
 ---------------------------------------------------------------------
 Center     Atomic      Atomic             Coordinates (Angstroms)
 Number     Number       Type             X           Y           Z
 ---------------------------------------------------------------------
      1         92           0        0.000000    0.000000    0.329368
      2          8           0        0.000000    1.721613    0.530848
      3          8           0       -0.000000   -1.721613    0.530848
      4         17           0        2.030576   -0.000000   -1.141042
      5         17           0       -2.030576    0.000000   -1.141042
 ---------------------------------------------------------------------
 Rotational constants (GHZ):           2.2971953           1.3188863           1.2220453
 Leave Link  202 at Wed Jan 12 14:50:24 2022, MaxMem=  1048576000 cpu:               0.3 elap:               0.2
 (Enter /home/pcmt/gaussian/g16.C.01/g16/l301.exe)
 General basis read from cards:  (5D, 7F)
 Centers:       1
 S 3 1.00
     Exponent=  1.2098082000D+04 Coefficients=  1.0200000000D-04
     Exponent=  1.8337573000D+03 Coefficients=  7.7100000000D-04
     Exponent=  3.5168632000D+02 Coefficients=  2.9690000000D-03
 S 1 1.00
     Exponent=  1.0431426000D+02 Coefficients=  1.0000000000D+00
 S 3 1.00
     Exponent=  6.0905822000D+01 Coefficients=  4.9868000000D-02
     Exponent=  3.5515086000D+01 Coefficients= -2.4531300000D-01
     Exponent=  2.0891227000D+01 Coefficients=  7.2384700000D-01
 S 1 1.00
     Exponent=  1.0184647000D+01 Coefficients=  1.0000000000D+00
 S 1 1.00
     Exponent=  2.8518510000D+00 Coefficients=  1.0000000000D+00
 S 1 1.00
     Exponent=  1.5316160000D+00 Coefficients=  1.0000000000D+00
 S 1 1.00
     Exponent=  6.1620300000D-01 Coefficients=  1.0000000000D+00
 S 1 1.00
     Exponent=  2.7949400000D-01 Coefficients=  1.0000000000D+00
 S 1 1.00
     Exponent=  5.7253000000D-02 Coefficients=  1.0000000000D+00
 S 1 1.00
     Exponent=  2.3443000000D-02 Coefficients=  1.0000000000D+00
 P 5 1.00
     Exponent=  2.9068451000D+03 Coefficients=  8.8000000000D-05
     Exponent=  6.9440053000D+02 Coefficients=  7.3200000000D-04
     Exponent=  2.2463479000D+02 Coefficients=  3.4140000000D-03
     Exponent=  8.0520526000D+01 Coefficients=  1.1099000000D-02
     Exponent=  2.4080211000D+01 Coefficients=  2.5216000000D-02
 P 1 1.00
     Exponent=  1.4077580000D+01 Coefficients=  1.0000000000D+00
 P 1 1.00
     Exponent=  8.2658460000D+00 Coefficients=  1.0000000000D+00
 P 1 1.00
     Exponent=  3.4236070000D+00 Coefficients=  1.0000000000D+00
 P 1 1.00
     Exponent=  1.7084170000D+00 Coefficients=  1.0000000000D+00
 P 1 1.00
     Exponent=  6.5504600000D-01 Coefficients=  1.0000000000D+00
 P 1 1.00
     Exponent=  2.8375500000D-01 Coefficients=  1.0000000000D+00
 P 1 1.00
     Exponent=  1.0181400000D-01 Coefficients=  1.0000000000D+00
 P 1 1.00
     Exponent=  3.0535000000D-02 Coefficients=  1.0000000000D+00
 D 6 1.00
     Exponent=  4.4901953000D+02 Coefficients=  5.0000000000D-05
     Exponent=  1.5635695000D+02 Coefficients=  3.2200000000D-04
     Exponent=  6.0242439000D+01 Coefficients=  1.7770000000D-03
     Exponent=  1.7772317000D+01 Coefficients=  2.5385000000D-02
     Exponent=  1.0454304000D+01 Coefficients= -8.9378000000D-02
     Exponent=  3.5834330000D+00 Coefficients=  4.4479900000D-01
 D 1 1.00
     Exponent=  1.7637240000D+00 Coefficients=  1.0000000000D+00
 D 1 1.00
     Exponent=  7.8403000000D-01 Coefficients=  1.0000000000D+00
 D 1 1.00
     Exponent=  2.7612700000D-01 Coefficients=  1.0000000000D+00
 D 1 1.00
     Exponent=  8.6980000000D-02 Coefficients=  1.0000000000D+00
 F 5 1.00
     Exponent=  1.0528793000D+02 Coefficients=  2.2800000000D-04
     Exponent=  3.5101181000D+01 Coefficients=  2.3080000000D-03
     Exponent=  1.4564138000D+01 Coefficients=  9.2530000000D-03
     Exponent=  4.6518850000D+00 Coefficients=  1.3694900000D-01
     Exponent=  2.2559730000D+00 Coefficients=  3.3980100000D-01
 F 1 1.00
     Exponent=  1.0102740000D+00 Coefficients=  1.0000000000D+00
 F 1 1.00
     Exponent=  4.1168000000D-01 Coefficients=  1.0000000000D+00
 F 1 1.00
     Exponent=  1.4412000000D-01 Coefficients=  1.0000000000D+00
 G 4 1.00
     Exponent=  1.0528793000D+02 Coefficients=  1.3700000000D-04
     Exponent=  3.5101181000D+01 Coefficients=  1.8310000000D-03
     Exponent=  1.4564138000D+01 Coefficients=  1.9940000000D-02
     Exponent=  4.6518850000D+00 Coefficients=  1.1075800000D-01
 G 1 1.00
     Exponent=  2.2559730000D+00 Coefficients=  1.0000000000D+00
 G 1 1.00
     Exponent=  1.0102740000D+00 Coefficients=  1.0000000000D+00
 ****
 Centers:       4      5
 Def2TZVP
 ****
 Centers:       2      3
 Def2TZVP
 ****
 ======================================================================================================
                                       Pseudopotential Parameters
 ======================================================================================================
  Center     Atomic      Valence      Angular      Power
  Number     Number     Electrons     Momentum     of R      Exponent        Coefficient   SO-Coeffient
 ======================================================================================================
    1         92           32
                                      H and up 
                                                     2        1.0000000        0.00000000    0.00000000
                                      S - H
                                                     2       16.4140387      536.51662778    0.00000000
                                      P - H
                                                     2        9.0605561      169.54492465    0.00000000
                                      D - H
                                                     2        8.8318320      142.61559837    0.00000000
                                      F - H
                                                     2        7.0185163       60.39307602    0.00000000
                                      G - H
                                                     2       12.8040884      -60.12998958    0.00000000
    2          8
                                   No pseudopotential on this center.
    3          8
                                   No pseudopotential on this center.
    4         17
                                   No pseudopotential on this center.
    5         17
                                   No pseudopotential on this center.
 ======================================================================================================
 Ernie: Thresh=  0.10000D-02 Tol=  0.10000D-05 Strict=F.
 AO basis set in the form of general basis input (Overlap normalization):
      1 0
 S   3 1.00       0.000000000000
      0.1209808200D+05  0.2884168448D-01
      0.1833757300D+04  0.2180092033D+00
      0.3516863200D+03  0.8395192276D+00
 S   3 1.00       0.000000000000
      0.6090582200D+02  0.9338504807D-01
      0.3551508600D+02 -0.4593840999D+00
      0.2089122700D+02  0.1355508280D+01
 S   1 1.00       0.000000000000
      0.1043142600D+03  0.1000000000D+01
 S   1 1.00       0.000000000000
      0.1018464700D+02  0.1000000000D+01
 S   1 1.00       0.000000000000
      0.2851851000D+01  0.1000000000D+01
 S   1 1.00       0.000000000000
      0.1531616000D+01  0.1000000000D+01
 S   1 1.00       0.000000000000
      0.6162030000D+00  0.1000000000D+01
 S   1 1.00       0.000000000000
      0.2794940000D+00  0.1000000000D+01
 S   1 1.00       0.000000000000
      0.5725300000D-01  0.1000000000D+01
 S   1 1.00       0.000000000000
      0.2344300000D-01  0.1000000000D+01
 P   5 1.00       0.000000000000
      0.2906845100D+04  0.2490724940D-02
      0.6944005300D+03  0.2071830291D-01
      0.2246347900D+03  0.9662880620D-01
      0.8052052600D+02  0.3141426831D+00
      0.2408021100D+02  0.7137059101D+00
 P   1 1.00       0.000000000000
      0.1407758000D+02  0.1000000000D+01
 P   1 1.00       0.000000000000
      0.8265846000D+01  0.1000000000D+01
 P   1 1.00       0.000000000000
      0.3423607000D+01  0.1000000000D+01
 P   1 1.00       0.000000000000
      0.1708417000D+01  0.1000000000D+01
 P   1 1.00       0.000000000000
      0.6550460000D+00  0.1000000000D+01
 P   1 1.00       0.000000000000
      0.2837550000D+00  0.1000000000D+01
 P   1 1.00       0.000000000000
      0.1018140000D+00  0.1000000000D+01
 P   1 1.00       0.000000000000
      0.3053500000D-01  0.1000000000D+01
 D   6 1.00       0.000000000000
      0.4490195300D+03  0.1244413406D-03
      0.1563569500D+03  0.8014022332D-03
      0.6024243900D+02  0.4422645243D-02
      0.1777231700D+02  0.6317886860D-01
      0.1045430400D+02 -0.2224463627D+00
      0.3583433000D+01  0.1107027677D+01
 D   1 1.00       0.000000000000
      0.1763724000D+01  0.1000000000D+01
 D   1 1.00       0.000000000000
      0.7840300000D+00  0.1000000000D+01
 D   1 1.00       0.000000000000
      0.2761270000D+00  0.1000000000D+01
 D   1 1.00       0.000000000000
      0.8698000000D-01  0.1000000000D+01
 F   5 1.00       0.000000000000
      0.1052879300D+03  0.5015876177D-03
      0.3510118100D+02  0.5077474656D-02
      0.1456413800D+02  0.2035609748D-01
      0.4651885000D+01  0.3012803625D+00
      0.2255973000D+01  0.7475437460D+00
 F   1 1.00       0.000000000000
      0.1010274000D+01  0.1000000000D+01
 F   1 1.00       0.000000000000
      0.4116800000D+00  0.1000000000D+01
 F   1 1.00       0.000000000000
      0.1441200000D+00  0.1000000000D+01
 G   4 1.00       0.000000000000
      0.1052879300D+03  0.1132460043D-02
      0.3510118100D+02  0.1513528715D-01
      0.1456413800D+02  0.1648266662D+00
      0.4651885000D+01  0.9155402153D+00
 G   1 1.00       0.000000000000
      0.2255973000D+01  0.1000000000D+01
 G   1 1.00       0.000000000000
      0.1010274000D+01  0.1000000000D+01
 ****
      2 0
 S   6 1.00       0.000000000000
      0.2703238263D+05  0.5722733521D-03
      0.4052387139D+04  0.4435323349D-02
      0.9223272271D+03  0.2302010771D-01
      0.2612407099D+03  0.9282249067D-01
      0.8535464135D+02  0.2937850001D+00
      0.3103503524D+02  0.6740160450D+00
 S   2 1.00       0.000000000000
      0.1226086073D+02  0.6383993703D+00
      0.4998707601D+01  0.3953458713D+00
 S   1 1.00       0.000000000000
      0.1170310816D+01  0.1000000000D+01
 S   1 1.00       0.000000000000
      0.4647474099D+00  0.1000000000D+01
 S   1 1.00       0.000000000000
      0.1850453636D+00  0.1000000000D+01
 P   4 1.00       0.000000000000
      0.6327495480D+02  0.1201833222D-01
      0.1462704938D+02  0.8300542179D-01
      0.4450122346D+01  0.3199174393D+00
      0.1527579965D+01  0.7071554292D+00
 P   1 1.00       0.000000000000
      0.5293511794D+00  0.1000000000D+01
 P   1 1.00       0.000000000000
      0.1747842127D+00  0.1000000000D+01
 D   1 1.00       0.000000000000
      0.2314000000D+01  0.1000000000D+01
 D   1 1.00       0.000000000000
      0.6450000000D+00  0.1000000000D+01
 F   1 1.00       0.000000000000
      0.1428000000D+01  0.1000000000D+01
 ****
      3 0
 S   6 1.00       0.000000000000
      0.2703238263D+05  0.5722733521D-03
      0.4052387139D+04  0.4435323349D-02
      0.9223272271D+03  0.2302010771D-01
      0.2612407099D+03  0.9282249067D-01
      0.8535464135D+02  0.2937850001D+00
      0.3103503524D+02  0.6740160450D+00
 S   2 1.00       0.000000000000
      0.1226086073D+02  0.6383993703D+00
      0.4998707601D+01  0.3953458713D+00
 S   1 1.00       0.000000000000
      0.1170310816D+01  0.1000000000D+01
 S   1 1.00       0.000000000000
      0.4647474099D+00  0.1000000000D+01
 S   1 1.00       0.000000000000
      0.1850453636D+00  0.1000000000D+01
 P   4 1.00       0.000000000000
      0.6327495480D+02  0.1201833222D-01
      0.1462704938D+02  0.8300542179D-01
      0.4450122346D+01  0.3199174393D+00
      0.1527579965D+01  0.7071554292D+00
 P   1 1.00       0.000000000000
      0.5293511794D+00  0.1000000000D+01
 P   1 1.00       0.000000000000
      0.1747842127D+00  0.1000000000D+01
 D   1 1.00       0.000000000000
      0.2314000000D+01  0.1000000000D+01
 D   1 1.00       0.000000000000
      0.6450000000D+00  0.1000000000D+01
 F   1 1.00       0.000000000000
      0.1428000000D+01  0.1000000000D+01
 ****
      4 0
 S   7 1.00       0.000000000000
      0.6950799094D+05  0.5145738965D-03
      0.1042615688D+05  0.3978134481D-02
      0.2373233406D+04  0.2045617867D-01
      0.6715642007D+03  0.8014810289D-01
      0.2184199979D+03  0.2345477032D+00
      0.7757224971D+02  0.4454336858D+00
      0.2888881528D+02  0.3546684250D+00
 S   3 1.00       0.000000000000
      0.1271052718D+03  0.1129368805D+00
      0.3933958296D+02  0.4837351421D+00
      0.7674067999D+01 -0.1229229739D+01
 S   2 1.00       0.000000000000
      0.3874562763D+01  0.6729682164D+00
      0.1838583257D+01  0.3495605141D+00
 S   1 1.00       0.000000000000
      0.5022905754D+00  0.1000000000D+01
 S   1 1.00       0.000000000000
      0.1796272342D+00  0.1000000000D+01
 P   5 1.00       0.000000000000
      0.6665042328D+03  0.3350250820D-02
      0.1576424169D+03  0.2676397041D-01
      0.5026252098D+02  0.1236268236D+00
      0.1853607811D+02  0.3584578792D+00
      0.7294053278D+01  0.6167729635D+00
 P   1 1.00       0.000000000000
      0.2943324899D+01  0.1000000000D+01
 P   1 1.00       0.000000000000
      0.1040497082D+01  0.1000000000D+01
 P   1 1.00       0.000000000000
      0.3845641508D+00  0.1000000000D+01
 P   1 1.00       0.000000000000
      0.1306964273D+00  0.1000000000D+01
 D   2 1.00       0.000000000000
      0.4610000000D+01  0.1826583505D+00
      0.1011000000D+01  0.9132917523D+00
 D   1 1.00       0.000000000000
      0.3390000000D+00  0.1000000000D+01
 F   1 1.00       0.000000000000
      0.7060000000D+00  0.1000000000D+01
 ****
      5 0
 S   7 1.00       0.000000000000
      0.6950799094D+05  0.5145738965D-03
      0.1042615688D+05  0.3978134481D-02
      0.2373233406D+04  0.2045617867D-01
      0.6715642007D+03  0.8014810289D-01
      0.2184199979D+03  0.2345477032D+00
      0.7757224971D+02  0.4454336858D+00
      0.2888881528D+02  0.3546684250D+00
 S   3 1.00       0.000000000000
      0.1271052718D+03  0.1129368805D+00
      0.3933958296D+02  0.4837351421D+00
      0.7674067999D+01 -0.1229229739D+01
 S   2 1.00       0.000000000000
      0.3874562763D+01  0.6729682164D+00
      0.1838583257D+01  0.3495605141D+00
 S   1 1.00       0.000000000000
      0.5022905754D+00  0.1000000000D+01
 S   1 1.00       0.000000000000
      0.1796272342D+00  0.1000000000D+01
 P   5 1.00       0.000000000000
      0.6665042328D+03  0.3350250820D-02
      0.1576424169D+03  0.2676397041D-01
      0.5026252098D+02  0.1236268236D+00
      0.1853607811D+02  0.3584578792D+00
      0.7294053278D+01  0.6167729635D+00
 P   1 1.00       0.000000000000
      0.2943324899D+01  0.1000000000D+01
 P   1 1.00       0.000000000000
      0.1040497082D+01  0.1000000000D+01
 P   1 1.00       0.000000000000
      0.3845641508D+00  0.1000000000D+01
 P   1 1.00       0.000000000000
      0.1306964273D+00  0.1000000000D+01
 D   2 1.00       0.000000000000
      0.4610000000D+01  0.1826583505D+00
      0.1011000000D+01  0.9132917523D+00
 D   1 1.00       0.000000000000
      0.3390000000D+00  0.1000000000D+01
 F   1 1.00       0.000000000000
      0.7060000000D+00  0.1000000000D+01
 ****

 AO basis set (Overlap normalization):
 Atom U1       Shell     1 S   3     bf    1 -     1          0.000000000000          0.000000000000          0.622415038299
      0.1209808200D+05  0.2884168448D-01
      0.1833757300D+04  0.2180092033D+00
      0.3516863200D+03  0.8395192276D+00
 Atom U1       Shell     2 S   3     bf    2 -     2          0.000000000000          0.000000000000          0.622415038299
      0.6090582200D+02  0.9338504807D-01
      0.3551508600D+02 -0.4593840999D+00
      0.2089122700D+02  0.1355508280D+01
 Atom U1       Shell     3 S   1     bf    3 -     3          0.000000000000          0.000000000000          0.622415038299
      0.1043142600D+03  0.1000000000D+01
 Atom U1       Shell     4 S   1     bf    4 -     4          0.000000000000          0.000000000000          0.622415038299
      0.1018464700D+02  0.1000000000D+01
 Atom U1       Shell     5 S   1     bf    5 -     5          0.000000000000          0.000000000000          0.622415038299
      0.2851851000D+01  0.1000000000D+01
 Atom U1       Shell     6 S   1     bf    6 -     6          0.000000000000          0.000000000000          0.622415038299
      0.1531616000D+01  0.1000000000D+01
 Atom U1       Shell     7 S   1     bf    7 -     7          0.000000000000          0.000000000000          0.622415038299
      0.6162030000D+00  0.1000000000D+01
 Atom U1       Shell     8 S   1     bf    8 -     8          0.000000000000          0.000000000000          0.622415038299
      0.2794940000D+00  0.1000000000D+01
 Atom U1       Shell     9 S   1     bf    9 -     9          0.000000000000          0.000000000000          0.622415038299
      0.5725300000D-01  0.1000000000D+01
 Atom U1       Shell    10 S   1     bf   10 -    10          0.000000000000          0.000000000000          0.622415038299
      0.2344300000D-01  0.1000000000D+01
 Atom U1       Shell    11 P   5     bf   11 -    13          0.000000000000          0.000000000000          0.622415038299
      0.2906845100D+04  0.2490724940D-02
      0.6944005300D+03  0.2071830291D-01
      0.2246347900D+03  0.9662880620D-01
      0.8052052600D+02  0.3141426831D+00
      0.2408021100D+02  0.7137059101D+00
 Atom U1       Shell    12 P   1     bf   14 -    16          0.000000000000          0.000000000000          0.622415038299
      0.1407758000D+02  0.1000000000D+01
 Atom U1       Shell    13 P   1     bf   17 -    19          0.000000000000          0.000000000000          0.622415038299
      0.8265846000D+01  0.1000000000D+01
 Atom U1       Shell    14 P   1     bf   20 -    22          0.000000000000          0.000000000000          0.622415038299
      0.3423607000D+01  0.1000000000D+01
 Atom U1       Shell    15 P   1     bf   23 -    25          0.000000000000          0.000000000000          0.622415038299
      0.1708417000D+01  0.1000000000D+01
 Atom U1       Shell    16 P   1     bf   26 -    28          0.000000000000          0.000000000000          0.622415038299
      0.6550460000D+00  0.1000000000D+01
 Atom U1       Shell    17 P   1     bf   29 -    31          0.000000000000          0.000000000000          0.622415038299
      0.2837550000D+00  0.1000000000D+01
 Atom U1       Shell    18 P   1     bf   32 -    34          0.000000000000          0.000000000000          0.622415038299
      0.1018140000D+00  0.1000000000D+01
 Atom U1       Shell    19 P   1     bf   35 -    37          0.000000000000          0.000000000000          0.622415038299
      0.3053500000D-01  0.1000000000D+01
 Atom U1       Shell    20 D   6     bf   38 -    42          0.000000000000          0.000000000000          0.622415038299
      0.4490195300D+03  0.1244413406D-03
      0.1563569500D+03  0.8014022332D-03
      0.6024243900D+02  0.4422645243D-02
      0.1777231700D+02  0.6317886860D-01
      0.1045430400D+02 -0.2224463627D+00
      0.3583433000D+01  0.1107027677D+01
 Atom U1       Shell    21 D   1     bf   43 -    47          0.000000000000          0.000000000000          0.622415038299
      0.1763724000D+01  0.1000000000D+01
 Atom U1       Shell    22 D   1     bf   48 -    52          0.000000000000          0.000000000000          0.622415038299
      0.7840300000D+00  0.1000000000D+01
 Atom U1       Shell    23 D   1     bf   53 -    57          0.000000000000          0.000000000000          0.622415038299
      0.2761270000D+00  0.1000000000D+01
 Atom U1       Shell    24 D   1     bf   58 -    62          0.000000000000          0.000000000000          0.622415038299
      0.8698000000D-01  0.1000000000D+01
 Atom U1       Shell    25 F   5     bf   63 -    69          0.000000000000          0.000000000000          0.622415038299
      0.1052879300D+03  0.5015876177D-03
      0.3510118100D+02  0.5077474656D-02
      0.1456413800D+02  0.2035609748D-01
      0.4651885000D+01  0.3012803625D+00
      0.2255973000D+01  0.7475437460D+00
 Atom U1       Shell    26 F   1     bf   70 -    76          0.000000000000          0.000000000000          0.622415038299
      0.1010274000D+01  0.1000000000D+01
 Atom U1       Shell    27 F   1     bf   77 -    83          0.000000000000          0.000000000000          0.622415038299
      0.4116800000D+00  0.1000000000D+01
 Atom U1       Shell    28 F   1     bf   84 -    90          0.000000000000          0.000000000000          0.622415038299
      0.1441200000D+00  0.1000000000D+01
 Atom U1       Shell    29 G   4     bf   91 -    99          0.000000000000          0.000000000000          0.622415038299
      0.1052879300D+03  0.1132460043D-02
      0.3510118100D+02  0.1513528715D-01
      0.1456413800D+02  0.1648266662D+00
      0.4651885000D+01  0.9155402153D+00
 Atom U1       Shell    30 G   1     bf  100 -   108          0.000000000000          0.000000000000          0.622415038299
      0.2255973000D+01  0.1000000000D+01
 Atom U1       Shell    31 G   1     bf  109 -   117          0.000000000000          0.000000000000          0.622415038299
      0.1010274000D+01  0.1000000000D+01
 Atom O2       Shell    32 S   6     bf  118 -   118          0.000000000000          3.253377964249          1.003158180661
      0.2703238263D+05  0.5722733521D-03
      0.4052387139D+04  0.4435323349D-02
      0.9223272271D+03  0.2302010771D-01
      0.2612407099D+03  0.9282249067D-01
      0.8535464135D+02  0.2937850001D+00
      0.3103503524D+02  0.6740160450D+00
 Atom O2       Shell    33 S   2     bf  119 -   119          0.000000000000          3.253377964249          1.003158180661
      0.1226086073D+02  0.6383993703D+00
      0.4998707601D+01  0.3953458713D+00
 Atom O2       Shell    34 S   1     bf  120 -   120          0.000000000000          3.253377964249          1.003158180661
      0.1170310816D+01  0.1000000000D+01
 Atom O2       Shell    35 S   1     bf  121 -   121          0.000000000000          3.253377964249          1.003158180661
      0.4647474099D+00  0.1000000000D+01
 Atom O2       Shell    36 S   1     bf  122 -   122          0.000000000000          3.253377964249          1.003158180661
      0.1850453636D+00  0.1000000000D+01
 Atom O2       Shell    37 P   4     bf  123 -   125          0.000000000000          3.253377964249          1.003158180661
      0.6327495480D+02  0.1201833222D-01
      0.1462704938D+02  0.8300542179D-01
      0.4450122346D+01  0.3199174393D+00
      0.1527579965D+01  0.7071554292D+00
 Atom O2       Shell    38 P   1     bf  126 -   128          0.000000000000          3.253377964249          1.003158180661
      0.5293511794D+00  0.1000000000D+01
 Atom O2       Shell    39 P   1     bf  129 -   131          0.000000000000          3.253377964249          1.003158180661
      0.1747842127D+00  0.1000000000D+01
 Atom O2       Shell    40 D   1     bf  132 -   136          0.000000000000          3.253377964249          1.003158180661
      0.2314000000D+01  0.1000000000D+01
 Atom O2       Shell    41 D   1     bf  137 -   141          0.000000000000          3.253377964249          1.003158180661
      0.6450000000D+00  0.1000000000D+01
 Atom O2       Shell    42 F   1     bf  142 -   148          0.000000000000          3.253377964249          1.003158180661
      0.1428000000D+01  0.1000000000D+01
 Atom O3       Shell    43 S   6     bf  149 -   149         -0.000000000000         -3.253377964249          1.003158180661
      0.2703238263D+05  0.5722733521D-03
      0.4052387139D+04  0.4435323349D-02
      0.9223272271D+03  0.2302010771D-01
      0.2612407099D+03  0.9282249067D-01
      0.8535464135D+02  0.2937850001D+00
      0.3103503524D+02  0.6740160450D+00
 Atom O3       Shell    44 S   2     bf  150 -   150         -0.000000000000         -3.253377964249          1.003158180661
      0.1226086073D+02  0.6383993703D+00
      0.4998707601D+01  0.3953458713D+00
 Atom O3       Shell    45 S   1     bf  151 -   151         -0.000000000000         -3.253377964249          1.003158180661
      0.1170310816D+01  0.1000000000D+01
 Atom O3       Shell    46 S   1     bf  152 -   152         -0.000000000000         -3.253377964249          1.003158180661
      0.4647474099D+00  0.1000000000D+01
 Atom O3       Shell    47 S   1     bf  153 -   153         -0.000000000000         -3.253377964249          1.003158180661
      0.1850453636D+00  0.1000000000D+01
 Atom O3       Shell    48 P   4     bf  154 -   156         -0.000000000000         -3.253377964249          1.003158180661
      0.6327495480D+02  0.1201833222D-01
      0.1462704938D+02  0.8300542179D-01
      0.4450122346D+01  0.3199174393D+00
      0.1527579965D+01  0.7071554292D+00
 Atom O3       Shell    49 P   1     bf  157 -   159         -0.000000000000         -3.253377964249          1.003158180661
      0.5293511794D+00  0.1000000000D+01
 Atom O3       Shell    50 P   1     bf  160 -   162         -0.000000000000         -3.253377964249          1.003158180661
      0.1747842127D+00  0.1000000000D+01
 Atom O3       Shell    51 D   1     bf  163 -   167         -0.000000000000         -3.253377964249          1.003158180661
      0.2314000000D+01  0.1000000000D+01
 Atom O3       Shell    52 D   1     bf  168 -   172         -0.000000000000         -3.253377964249          1.003158180661
      0.6450000000D+00  0.1000000000D+01
 Atom O3       Shell    53 F   1     bf  173 -   179         -0.000000000000         -3.253377964249          1.003158180661
      0.1428000000D+01  0.1000000000D+01
 Atom Cl4      Shell    54 S   7     bf  180 -   180          3.837232352519         -0.000000000000         -2.156256306297
      0.6950799094D+05  0.5145738965D-03
      0.1042615688D+05  0.3978134481D-02
      0.2373233406D+04  0.2045617867D-01
      0.6715642007D+03  0.8014810289D-01
      0.2184199979D+03  0.2345477032D+00
      0.7757224971D+02  0.4454336858D+00
      0.2888881528D+02  0.3546684250D+00
 Atom Cl4      Shell    55 S   3     bf  181 -   181          3.837232352519         -0.000000000000         -2.156256306297
      0.1271052718D+03  0.1129368805D+00
      0.3933958296D+02  0.4837351421D+00
      0.7674067999D+01 -0.1229229739D+01
 Atom Cl4      Shell    56 S   2     bf  182 -   182          3.837232352519         -0.000000000000         -2.156256306297
      0.3874562763D+01  0.6729682164D+00
      0.1838583257D+01  0.3495605141D+00
 Atom Cl4      Shell    57 S   1     bf  183 -   183          3.837232352519         -0.000000000000         -2.156256306297
      0.5022905754D+00  0.1000000000D+01
 Atom Cl4      Shell    58 S   1     bf  184 -   184          3.837232352519         -0.000000000000         -2.156256306297
      0.1796272342D+00  0.1000000000D+01
 Atom Cl4      Shell    59 P   5     bf  185 -   187          3.837232352519         -0.000000000000         -2.156256306297
      0.6665042328D+03  0.3350250820D-02
      0.1576424169D+03  0.2676397041D-01
      0.5026252098D+02  0.1236268236D+00
      0.1853607811D+02  0.3584578792D+00
      0.7294053278D+01  0.6167729635D+00
 Atom Cl4      Shell    60 P   1     bf  188 -   190          3.837232352519         -0.000000000000         -2.156256306297
      0.2943324899D+01  0.1000000000D+01
 Atom Cl4      Shell    61 P   1     bf  191 -   193          3.837232352519         -0.000000000000         -2.156256306297
      0.1040497082D+01  0.1000000000D+01
 Atom Cl4      Shell    62 P   1     bf  194 -   196          3.837232352519         -0.000000000000         -2.156256306297
      0.3845641508D+00  0.1000000000D+01
 Atom Cl4      Shell    63 P   1     bf  197 -   199          3.837232352519         -0.000000000000         -2.156256306297
      0.1306964273D+00  0.1000000000D+01
 Atom Cl4      Shell    64 D   2     bf  200 -   204          3.837232352519         -0.000000000000         -2.156256306297
      0.4610000000D+01  0.1826583505D+00
      0.1011000000D+01  0.9132917523D+00
 Atom Cl4      Shell    65 D   1     bf  205 -   209          3.837232352519         -0.000000000000         -2.156256306297
      0.3390000000D+00  0.1000000000D+01
 Atom Cl4      Shell    66 F   1     bf  210 -   216          3.837232352519         -0.000000000000         -2.156256306297
      0.7060000000D+00  0.1000000000D+01
 Atom Cl5      Shell    67 S   7     bf  217 -   217         -3.837232352519          0.000000000000         -2.156256306297
      0.6950799094D+05  0.5145738965D-03
      0.1042615688D+05  0.3978134481D-02
      0.2373233406D+04  0.2045617867D-01
      0.6715642007D+03  0.8014810289D-01
      0.2184199979D+03  0.2345477032D+00
      0.7757224971D+02  0.4454336858D+00
      0.2888881528D+02  0.3546684250D+00
 Atom Cl5      Shell    68 S   3     bf  218 -   218         -3.837232352519          0.000000000000         -2.156256306297
      0.1271052718D+03  0.1129368805D+00
      0.3933958296D+02  0.4837351421D+00
      0.7674067999D+01 -0.1229229739D+01
 Atom Cl5      Shell    69 S   2     bf  219 -   219         -3.837232352519          0.000000000000         -2.156256306297
      0.3874562763D+01  0.6729682164D+00
      0.1838583257D+01  0.3495605141D+00
 Atom Cl5      Shell    70 S   1     bf  220 -   220         -3.837232352519          0.000000000000         -2.156256306297
      0.5022905754D+00  0.1000000000D+01
 Atom Cl5      Shell    71 S   1     bf  221 -   221         -3.837232352519          0.000000000000         -2.156256306297
      0.1796272342D+00  0.1000000000D+01
 Atom Cl5      Shell    72 P   5     bf  222 -   224         -3.837232352519          0.000000000000         -2.156256306297
      0.6665042328D+03  0.3350250820D-02
      0.1576424169D+03  0.2676397041D-01
      0.5026252098D+02  0.1236268236D+00
      0.1853607811D+02  0.3584578792D+00
      0.7294053278D+01  0.6167729635D+00
 Atom Cl5      Shell    73 P   1     bf  225 -   227         -3.837232352519          0.000000000000         -2.156256306297
      0.2943324899D+01  0.1000000000D+01
 Atom Cl5      Shell    74 P   1     bf  228 -   230         -3.837232352519          0.000000000000         -2.156256306297
      0.1040497082D+01  0.1000000000D+01
 Atom Cl5      Shell    75 P   1     bf  231 -   233         -3.837232352519          0.000000000000         -2.156256306297
      0.3845641508D+00  0.1000000000D+01
 Atom Cl5      Shell    76 P   1     bf  234 -   236         -3.837232352519          0.000000000000         -2.156256306297
      0.1306964273D+00  0.1000000000D+01
 Atom Cl5      Shell    77 D   2     bf  237 -   241         -3.837232352519          0.000000000000         -2.156256306297
      0.4610000000D+01  0.1826583505D+00
      0.1011000000D+01  0.9132917523D+00
 Atom Cl5      Shell    78 D   1     bf  242 -   246         -3.837232352519          0.000000000000         -2.156256306297
      0.3390000000D+00  0.1000000000D+01
 Atom Cl5      Shell    79 F   1     bf  247 -   253         -3.837232352519          0.000000000000         -2.156256306297
      0.7060000000D+00  0.1000000000D+01
 Effective core potential in the form of general ECP input:
      1 0
 U1-ECP   5 60
 H component
  1
  2        1.0000000        0.00000000    0.00000000
 S-H projection
  1
  2       16.4140387      536.51662778    0.00000000
 P-H projection
  1
  2        9.0605561      169.54492465    0.00000000
 D-H projection
  1
  2        8.8318320      142.61559837    0.00000000
 F-H projection
  1
  2        7.0185163       60.39307602    0.00000000
 G-H projection
  1
  2       12.8040884      -60.12998958    0.00000000
 
 There are   118 symmetry adapted cartesian basis functions of A1  symmetry.
 There are    42 symmetry adapted cartesian basis functions of A2  symmetry.
 There are    75 symmetry adapted cartesian basis functions of B1  symmetry.
 There are    73 symmetry adapted cartesian basis functions of B2  symmetry.
 There are    92 symmetry adapted basis functions of A1  symmetry.
 There are    37 symmetry adapted basis functions of A2  symmetry.
 There are    63 symmetry adapted basis functions of B1  symmetry.
 There are    61 symmetry adapted basis functions of B2  symmetry.
   253 basis functions,   523 primitive gaussians,   308 cartesian basis functions
    41 alpha electrons       41 beta electrons
       nuclear repulsion energy       525.0241825471 Hartrees.
 IExCor= 1009 DFT=T Ex+Corr=PBE1PBE ExCW=0 ScaHFX=  0.250000
 ScaDFX=  0.750000  0.750000  1.000000  1.000000 ScalE2=  1.000000  1.000000
 IRadAn=      5 IRanWt=     -1 IRanGd=            0 ICorTp=0 IEmpDi=141
 NAtoms=    5 NActive=    5 NUniq=    3 SFac= 2.78D+00 NAtFMM=   60 NAOKFM=F Big=F
 Integral buffers will be    131072 words long.
 Raffenetti 2 integral format.
 Two-electron integral symmetry is turned on.
 R6Disp:  Grimme-D3(BJ) Dispersion energy=       -0.0056304260 Hartrees.
 Nuclear repulsion after empirical dispersion term =      525.0185521211 Hartrees.
 Leave Link  301 at Wed Jan 12 14:50:24 2022, MaxMem=  1048576000 cpu:               0.4 elap:               0.2
 (Enter /home/pcmt/gaussian/g16.C.01/g16/l302.exe)
 NPDir=0 NMtPBC=     1 NCelOv=     1 NCel=       1 NClECP=     1 NCelD=      1
         NCelK=      1 NCelE2=     1 NClLst=     1 CellRange=     0.0.
 One-electron integrals computed using PRISM.
 One-electron integral symmetry used in STVInt
   4 Symmetry operations used in ECPInt.
 ECPInt:  NShTT=    3160 NPrTT=   10748 LenC2=    3029 LenP2D=    7903.
 LDataN:  DoStor=T MaxTD1= 9 Len=  602
 NBasis=   253 RedAO= T EigKep=  8.23D-04  NBF=    92    37    63    61
 NBsUse=   253 1.00D-06 EigRej= -1.00D+00 NBFU=    92    37    63    61
 Precomputing XC quadrature grid using
 IXCGrd= 4 IRadAn=           5 IRanWt=          -1 IRanGd=           0 AccXCQ= 0.00D+00.
 Defaulting to unpruned grid for atomic number  92.
 Generated NRdTot=       0 NPtTot=           0 NUsed=           0 NTot=          32
 NSgBfM=   303   303   303   303   303 MxSgAt=     5 MxSgA2=     5.
 Leave Link  302 at Wed Jan 12 14:50:26 2022, MaxMem=  1048576000 cpu:               4.5 elap:               1.9
 (Enter /home/pcmt/gaussian/g16.C.01/g16/l303.exe)
 DipDrv:  MaxL=1.
 Leave Link  303 at Wed Jan 12 14:50:26 2022, MaxMem=  1048576000 cpu:               0.4 elap:               0.2
 (Enter /home/pcmt/gaussian/g16.C.01/g16/l401.exe)
 Initial guess from the checkpoint file:  "gs-uo2_cl2.pbe0-d3.QTAIM.chk"
 B after Tr=     0.000000   -0.000000   -0.000000
         Rot=    1.000000   -0.000000   -0.000000   -0.000000 Ang=   0.00 deg.
 Guess basis will be translated and rotated to current coordinates.
 JPrj=2 DoOrth=T DoCkMO=T.
 Initial guess orbital symmetries:
       Occupied  (A1) (B1) (B2) (A1) (A1) (A1) (B1) (A1) (B1) (B2)
                 (B1) (A1) (A1) (B1) (B2) (A2) (A1) (B1) (B2) (A2)
                 (A1) (A1) (B2) (A1) (B1) (A1) (A1) (B1) (B2) (B2)
                 (A2) (A1) (B1) (A1) (B2) (A1) (B1) (A1) (B1) (A2)
                 (B2)
       Virtual   (A1) (B1) (B2) (A2) (A1) (B1) (A1) (A1) (B1) (A1)
                 (B2) (B2) (B1) (A1) (A2) (B2) (B2) (A1) (A1) (B1)
                 (A2) (B1) (B2) (A1) (A1) (B2) (B1) (A1) (A2) (B1)
                 (A2) (A1) (B2) (B1) (A1) (B2) (B1) (A2) (A1) (B1)
                 (A1) (B2) (A1) (B1) (B2) (A1) (A2) (A1) (B2) (B1)
                 (A1) (B1) (A2) (B2) (A1) (B2) (A1) (B1) (A1) (A1)
                 (B1) (B1) (B2) (A2) (A1) (A1) (B2) (B1) (A1) (B1)
                 (B2) (A2) (B2) (A2) (A1) (A1) (A2) (A2) (B2) (B1)
                 (A1) (B2) (B1) (B1) (A1) (B2) (A1) (B1) (A2) (B2)
                 (B1) (A1) (A2) (B2) (A1) (B1) (A2) (B2) (A1) (B1)
                 (B2) (B1) (A1) (A2) (B1) (A1) (A1) (B2) (B2) (A1)
                 (B1) (A2) (A1) (B1) (A2) (A1) (B2) (B1) (B2) (A2)
                 (A1) (B1) (A1) (B2) (A2) (A1) (A1) (B1) (B2) (A1)
                 (B2) (B2) (B2) (A2) (B1) (A1) (A1) (B1) (A1) (B1)
                 (A2) (B2) (B1) (A2) (A1) (B2) (B2) (A2) (A1) (A1)
                 (B1) (B2) (A1) (B1) (A1) (B1) (A2) (B2) (A1) (B2)
                 (A2) (B1) (A1) (A2) (B2) (A1) (B1) (B2) (A1) (B1)
                 (A1) (B2) (A2) (A1) (B2) (A1) (A2) (B2) (B1) (A1)
                 (B1) (A1) (A2) (B2) (A1) (B1) (A2) (B2) (B1) (A1)
                 (A1) (B1) (A2) (B2) (A1) (A1) (B1) (B2) (B1) (A1)
                 (A1) (A1) (B2) (A1) (B1) (B2) (A1) (A1) (B1) (B2)
                 (A1) (A1)
 The electronic state of the initial guess is 1-A1.
 Leave Link  401 at Wed Jan 12 14:50:27 2022, MaxMem=  1048576000 cpu:               1.2 elap:               0.5
 (Enter /home/pcmt/gaussian/g16.C.01/g16/l502.exe)
 Keep R1 ints in memory in symmetry-blocked form, NReq=646035938.
 FoFCou: FMM=F IPFlag=           0 FMFlag=           0 FMFlg1=           0
         NFxFlg=           0 DoJE=F BraDBF=F KetDBF=F FulRan=T
         wScrn=  0.000000 ICntrl=       600 IOpCl=  0 I1Cent=           0 NGrid=           0
         NMat0=    1 NMatS0=  32131 NMatT0=    0 NMatD0=    1 NMtDS0=    0 NMtDT0=    0
 Petite list used in FoFCou.
 Closed shell SCF:
 Using DIIS extrapolation, IDIIS=  1040.
 NGot=  1048576000 LenX=   918564064 LenY=   918468759
 Requested convergence on RMS density matrix=1.00D-08 within 100 cycles.
 Requested convergence on MAX density matrix=1.00D-06.
 Requested convergence on             energy=1.00D-06.
 No special actions if energy rises.

 Cycle   1  Pass 1  IDiag  1:
 Defaulting to unpruned grid for atomic number  92.
 Defaulting to unpruned grid for atomic number  92.
 Defaulting to unpruned grid for atomic number  92.
 Defaulting to unpruned grid for atomic number  92.
 E= -1547.64565142155    
 DIIS: error= 4.33D-08 at cycle   1 NSaved=   1.
 NSaved= 1 IEnMin= 1 EnMin= -1547.64565142155     IErMin= 1 ErrMin= 4.33D-08
 ErrMax= 4.33D-08  0.00D+00 EMaxC= 1.00D-01 BMatC= 6.27D-13 BMatP= 6.27D-13
 IDIUse=1 WtCom= 1.00D+00 WtEn= 0.00D+00
 Coeff-Com:  0.100D+01
 Coeff:      0.100D+01
 Gap=     0.169 Goal=   None    Shift=    0.000
 RMSDP=5.59D-09 MaxDP=2.81D-07              OVMax= 4.99D-07

 SCF Done:  E(RPBE1PBE) =  -1547.64565142     A.U. after    1 cycles
            NFock=  1  Conv=0.56D-08     -V/T= 2.2700
 KE= 1.218622408823D+03 PE=-4.564379677386D+03 EE= 1.273093065020D+03
 Leave Link  502 at Wed Jan 12 14:53:40 2022, MaxMem=  1048576000 cpu:             667.2 elap:             193.6
 (Enter /home/pcmt/gaussian/g16.C.01/g16/l601.exe)
 Copying SCF densities to generalized density rwf, IOpCl= 0 IROHF=0.

 **********************************************************************

            Population analysis using the SCF Density.

 **********************************************************************

 Orbital symmetries:
       Occupied  (A1) (B1) (B2) (A1) (A1) (A1) (B1) (A1) (B1) (B2)
                 (B1) (A1) (A1) (B1) (B2) (A2) (A1) (B1) (B2) (A2)
                 (A1) (A1) (B2) (A1) (B1) (A1) (A1) (B1) (B2) (B2)
                 (A2) (A1) (B1) (A1) (B2) (A1) (B1) (A1) (B1) (A2)
                 (B2)
       Virtual   (A1) (B1) (B2) (A2) (A1) (B1) (A1) (A1) (B1) (A1)
                 (B2) (B2) (B1) (A1) (A2) (B2) (B2) (A1) (A1) (B1)
                 (A2) (B1) (B2) (A1) (A1) (B2) (B1) (A1) (A2) (B1)
                 (A2) (A1) (B2) (B1) (A1) (B2) (B1) (A2) (A1) (B1)
                 (A1) (B2) (A1) (B1) (B2) (A1) (A2) (A1) (B2) (B1)
                 (A1) (B1) (A2) (B2) (A1) (B2) (A1) (B1) (A1) (A1)
                 (B1) (B1) (B2) (A2) (A1) (A1) (B2) (B1) (A1) (B1)
                 (B2) (A2) (B2) (A2) (A1) (A1) (A2) (A2) (B2) (B1)
                 (A1) (B2) (B1) (B1) (A1) (B2) (A1) (B1) (A2) (B2)
                 (B1) (A1) (A2) (B2) (A1) (B1) (A2) (B2) (A1) (B1)
                 (B2) (B1) (A1) (A2) (B1) (A1) (A1) (B2) (B2) (A1)
                 (B1) (A2) (A1) (B1) (A2) (A1) (B2) (B1) (B2) (A2)
                 (A1) (B1) (A1) (B2) (A2) (A1) (A1) (B1) (B2) (A1)
                 (B2) (B2) (B2) (A2) (B1) (A1) (A1) (B1) (A1) (B1)
                 (A2) (B2) (B1) (A2) (A1) (B2) (B2) (A2) (A1) (A1)
                 (B1) (B2) (A1) (B1) (A1) (B1) (A2) (B2) (A1) (B2)
                 (A2) (B1) (A1) (A2) (B2) (A1) (B1) (B2) (A1) (B1)
                 (A1) (B2) (A2) (A1) (B2) (A1) (A2) (B2) (B1) (A1)
                 (B1) (A1) (A2) (B2) (A1) (B1) (A2) (B2) (B1) (A1)
                 (A1) (B1) (A2) (B2) (A1) (A1) (B1) (B2) (B1) (A1)
                 (A1) (A1) (B2) (A1) (B1) (B2) (A1) (A1) (B1) (B2)
                 (A1) (A1)
 The electronic state is 1-A1.
 Alpha  occ. eigenvalues -- -101.68461-101.68461 -19.27680 -19.27679 -12.16702
 Alpha  occ. eigenvalues --   -9.51175  -9.51175  -7.60455  -7.60397  -7.57055
 Alpha  occ. eigenvalues --   -7.24114  -7.24114  -7.24050  -7.24050  -7.23903
 Alpha  occ. eigenvalues --   -7.23903  -3.96837  -3.96796  -3.95421  -3.95403
 Alpha  occ. eigenvalues --   -3.94716  -1.98031  -1.26336  -1.04949  -1.02673
 Alpha  occ. eigenvalues --   -0.99048  -0.80699  -0.79828  -0.75952  -0.46390
 Alpha  occ. eigenvalues --   -0.46288  -0.45036  -0.43808  -0.43531  -0.40114
 Alpha  occ. eigenvalues --   -0.36930  -0.35926  -0.34619  -0.33569  -0.33347
 Alpha  occ. eigenvalues --   -0.31774
 Alpha virt. eigenvalues --   -0.14918  -0.14837  -0.14441  -0.14259  -0.10368
 Alpha virt. eigenvalues --   -0.09122  -0.04981  -0.01805  -0.01245   0.03381
 Alpha virt. eigenvalues --    0.03659   0.04594   0.05301   0.06290   0.09367
 Alpha virt. eigenvalues --    0.11194   0.18423   0.18741   0.23009   0.23449
 Alpha virt. eigenvalues --    0.25768   0.27191   0.28700   0.28848   0.31245
 Alpha virt. eigenvalues --    0.31689   0.33376   0.34610   0.35032   0.37035
 Alpha virt. eigenvalues --    0.39595   0.39689   0.39694   0.40843   0.41125
 Alpha virt. eigenvalues --    0.43476   0.46144   0.46367   0.50519   0.52032
 Alpha virt. eigenvalues --    0.53195   0.53227   0.60572   0.62469   0.62578
 Alpha virt. eigenvalues --    0.64225   0.64356   0.66412   0.67193   0.71689
 Alpha virt. eigenvalues --    0.72813   0.74221   0.74950   0.75966   0.79957
 Alpha virt. eigenvalues --    0.89214   1.03844   1.04990   1.15507   1.25984
 Alpha virt. eigenvalues --    1.28010   1.38432   1.39327   1.39393   1.39477
 Alpha virt. eigenvalues --    1.44493   1.44650   1.47259   1.48968   1.49857
 Alpha virt. eigenvalues --    1.52980   1.57090   1.62183   1.63395   1.70315
 Alpha virt. eigenvalues --    1.76604   1.77166   1.77475   1.80014   1.80488
 Alpha virt. eigenvalues --    1.82753   1.82771   1.87490   1.90858   1.91061
 Alpha virt. eigenvalues --    1.91694   1.94512   1.97682   1.99337   1.99822
 Alpha virt. eigenvalues --    2.07139   2.08077   2.09183   2.09419   2.09762
 Alpha virt. eigenvalues --    2.10228   2.10420   2.13619   2.13665   2.16043
 Alpha virt. eigenvalues --    2.18420   2.19088   2.22674   2.26050   2.26160
 Alpha virt. eigenvalues --    2.27561   2.27963   2.29575   2.32439   2.34802
 Alpha virt. eigenvalues --    2.35809   2.40503   2.45310   2.46278   2.48470
 Alpha virt. eigenvalues --    2.51463   2.52635   2.52922   2.56218   2.57008
 Alpha virt. eigenvalues --    2.65894   2.81895   2.82829   2.95393   2.99868
 Alpha virt. eigenvalues --    3.00434   3.05335   3.09672   3.10219   4.00192
 Alpha virt. eigenvalues --    4.34326   4.54044   4.64116   4.66559   4.74332
 Alpha virt. eigenvalues --    4.77113   4.93072   4.98699   5.04260   5.04429
 Alpha virt. eigenvalues --    5.05710   5.05812   5.07274   5.07315   5.08189
 Alpha virt. eigenvalues --    5.13094   5.15899   5.17309   5.17485   5.29731
 Alpha virt. eigenvalues --    5.31361   5.37815   6.11101   6.12764   6.13619
 Alpha virt. eigenvalues --    6.16391   6.16482   6.17417   6.20384   6.26637
 Alpha virt. eigenvalues --    6.27604   6.28612   6.31410   6.31607   6.36900
 Alpha virt. eigenvalues --    6.37779   6.39609   6.53397   6.64666   6.67569
 Alpha virt. eigenvalues --    6.84266   7.04662   7.06198   7.16400   7.49197
 Alpha virt. eigenvalues --    8.10336   8.16686   8.27956   8.32494   9.54276
 Alpha virt. eigenvalues --   10.76862  10.76965  10.77151  10.79366  10.99198
 Alpha virt. eigenvalues --   11.01832  13.37348  13.38138  13.38997  13.40854
 Alpha virt. eigenvalues --   13.45675  13.47228  13.74368  13.83701  14.17760
 Alpha virt. eigenvalues --   21.47933  21.52228  21.72293  25.11969  25.13172
 Alpha virt. eigenvalues --   32.17483  43.73191  43.90361  47.90689  47.94397
 Alpha virt. eigenvalues --   48.12085  59.21129 122.15425 122.20472 122.43711
 Alpha virt. eigenvalues --  229.19955 673.72574
     Molecular Orbital Coefficients:
                           1         2         3         4         5
                        (A1)--O   (B1)--O   (B2)--O   (A1)--O   (A1)--O
     Eigenvalues --  -101.68461-101.68461 -19.27680 -19.27679 -12.16702
   1 1   U  1S         -0.00000   0.00000   0.00000   0.00000  -0.00347
   2        2S         -0.00002   0.00000   0.00000   0.00002  -0.54364
   3        3S          0.00000   0.00000   0.00000  -0.00000   0.00649
   4        4S          0.00005   0.00000   0.00000  -0.00003   1.29772
   5        5S         -0.00014   0.00000   0.00000  -0.00007  -1.10032
   6        6S          0.00023   0.00000   0.00000   0.00075  -0.40422
   7        7S         -0.00013   0.00000   0.00000  -0.00359  -0.02194
   8        8S         -0.00042   0.00000   0.00000   0.00441   0.00510
   9        9S          0.00247   0.00000   0.00000  -0.00763   0.00033
  10       10S         -0.00049   0.00000   0.00000   0.00143  -0.00005
  11       11PX         0.00000  -0.00000   0.00000   0.00000   0.00000
  12       11PY         0.00000   0.00000  -0.00001   0.00000   0.00000
  13       11PZ         0.00000   0.00000   0.00000   0.00000  -0.00000
  14       12PX         0.00000   0.00002   0.00000   0.00000   0.00000
  15       12PY         0.00000   0.00000   0.00004   0.00000   0.00000
  16       12PZ        -0.00001   0.00000   0.00000  -0.00001  -0.00005
  17       13PX         0.00000  -0.00004   0.00000   0.00000   0.00000
  18       13PY         0.00000   0.00000  -0.00009   0.00000   0.00000
  19       13PZ         0.00003   0.00000   0.00000   0.00003   0.00013
  20       14PX         0.00000   0.00006   0.00000   0.00000   0.00000
  21       14PY         0.00000   0.00000   0.00013   0.00000   0.00000
  22       14PZ        -0.00004   0.00000   0.00000  -0.00007  -0.00006
  23       15PX         0.00000  -0.00008   0.00000   0.00000   0.00000
  24       15PY         0.00000   0.00000   0.00009   0.00000   0.00000
  25       15PZ         0.00005   0.00000   0.00000   0.00013  -0.00030
  26       16PX         0.00000   0.00011   0.00000   0.00000   0.00000
  27       16PY         0.00000   0.00000  -0.00282   0.00000   0.00000
  28       16PZ        -0.00007   0.00000   0.00000  -0.00041   0.00000
  29       17PX         0.00000  -0.00046   0.00000   0.00000   0.00000
  30       17PY         0.00000   0.00000   0.00687   0.00000   0.00000
  31       17PZ         0.00033   0.00000   0.00000   0.00065   0.00002
  32       18PX         0.00000   0.00211   0.00000   0.00000   0.00000
  33       18PY         0.00000   0.00000  -0.01473   0.00000   0.00000
  34       18PZ        -0.00159   0.00000   0.00000   0.00003   0.00005
  35       19PX         0.00000   0.00010   0.00000   0.00000   0.00000
  36       19PY         0.00000   0.00000   0.00060   0.00000   0.00000
  37       19PZ        -0.00003   0.00000   0.00000  -0.00017   0.00002
  38       20D 0        0.00000   0.00000   0.00000  -0.00016  -0.00151
  39       20D+1        0.00000   0.00006   0.00000   0.00000   0.00000
  40       20D-1        0.00000   0.00000   0.00016   0.00000   0.00000
  41       20D+2       -0.00004   0.00000   0.00000  -0.00024  -0.00243
  42       20D-2        0.00000   0.00000   0.00000   0.00000   0.00000
  43       21D 0       -0.00000   0.00000   0.00000   0.00042  -0.00003
  44       21D+1        0.00000  -0.00014   0.00000   0.00000   0.00000
  45       21D-1        0.00000   0.00000  -0.00040   0.00000   0.00000
  46       21D+2        0.00010   0.00000   0.00000   0.00062  -0.00015
  47       21D-2        0.00000   0.00000   0.00000   0.00000   0.00000
  48       22D 0       -0.00001   0.00000   0.00000  -0.00038  -0.00006
  49       22D+1        0.00000   0.00023   0.00000   0.00000   0.00000
  50       22D-1        0.00000   0.00000   0.00046   0.00000   0.00000
  51       22D+2       -0.00018   0.00000   0.00000  -0.00050  -0.00009
  52       22D-2        0.00000   0.00000   0.00000   0.00000   0.00000
  53       23D 0        0.00005   0.00000   0.00000  -0.00127  -0.00029
  54       23D+1        0.00000  -0.00040   0.00000   0.00000   0.00000
  55       23D-1        0.00000   0.00000   0.00016   0.00000   0.00000
  56       23D+2        0.00036   0.00000   0.00000  -0.00248  -0.00044
  57       23D-2        0.00000   0.00000   0.00000   0.00000   0.00000
  58       24D 0       -0.00005   0.00000   0.00000   0.00194  -0.00009
  59       24D+1        0.00000  -0.00102   0.00000   0.00000   0.00000
  60       24D-1        0.00000   0.00000  -0.00067   0.00000   0.00000
  61       24D+2        0.00075   0.00000   0.00000   0.00291  -0.00016
  62       24D-2        0.00000   0.00000   0.00000   0.00000   0.00000
  63       25F 0       -0.00000   0.00000   0.00000  -0.00001  -0.00002
  64       25F+1        0.00000   0.00000   0.00000   0.00000   0.00000
  65       25F-1        0.00000   0.00000  -0.00004   0.00000   0.00000
  66       25F+2       -0.00001   0.00000   0.00000   0.00001   0.00031
  67       25F-2        0.00000   0.00000   0.00000   0.00000   0.00000
  68       25F+3        0.00000   0.00001   0.00000   0.00000   0.00000
  69       25F-3        0.00000   0.00000  -0.00003   0.00000   0.00000
  70       26F 0       -0.00000   0.00000   0.00000   0.00005  -0.00003
  71       26F+1        0.00000  -0.00000   0.00000   0.00000   0.00000
  72       26F-1        0.00000   0.00000   0.00026   0.00000   0.00000
  73       26F+2        0.00003   0.00000   0.00000  -0.00001  -0.00004
  74       26F-2        0.00000   0.00000   0.00000   0.00000   0.00000
  75       26F+3        0.00000  -0.00004   0.00000   0.00000   0.00000
  76       26F-3        0.00000   0.00000   0.00031   0.00000   0.00000
  77       27F 0        0.00002   0.00000   0.00000  -0.00046  -0.00001
  78       27F+1        0.00000   0.00002   0.00000   0.00000   0.00000
  79       27F-1        0.00000   0.00000  -0.00210   0.00000   0.00000
  80       27F+2       -0.00006   0.00000   0.00000  -0.00051  -0.00009
  81       27F-2        0.00000   0.00000   0.00000   0.00000   0.00000
  82       27F+3        0.00000   0.00008   0.00000   0.00000   0.00000
  83       27F-3        0.00000   0.00000  -0.00272   0.00000   0.00000
  84       28F 0        0.00035   0.00000   0.00000  -0.00014  -0.00004
  85       28F+1        0.00000   0.00022   0.00000   0.00000   0.00000
  86       28F-1        0.00000   0.00000   0.00162   0.00000   0.00000
  87       28F+2       -0.00034   0.00000   0.00000   0.00030  -0.00007
  88       28F-2        0.00000   0.00000   0.00000   0.00000   0.00000
  89       28F+3        0.00000   0.00003   0.00000   0.00000   0.00000
  90       28F-3        0.00000   0.00000   0.00191   0.00000   0.00000
  91       29G 0       -0.00001   0.00000   0.00000   0.00004   0.00007
  92       29G+1        0.00000   0.00000   0.00000   0.00000   0.00000
  93       29G-1        0.00000   0.00000  -0.00005   0.00000   0.00000
  94       29G+2        0.00001   0.00000   0.00000   0.00005   0.00013
  95       29G-2        0.00000   0.00000   0.00000   0.00000   0.00000
  96       29G+3        0.00000  -0.00001   0.00000   0.00000   0.00000
  97       29G-3        0.00000   0.00000  -0.00004   0.00000   0.00000
  98       29G+4       -0.00000   0.00000   0.00000   0.00008   0.00019
  99       29G-4        0.00000   0.00000   0.00000   0.00000   0.00000
 100       30G 0        0.00003   0.00000   0.00000  -0.00012   0.00001
 101       30G+1        0.00000  -0.00001   0.00000   0.00000   0.00000
 102       30G-1        0.00000   0.00000   0.00015   0.00000   0.00000
 103       30G+2       -0.00002   0.00000   0.00000  -0.00015   0.00001
 104       30G-2        0.00000   0.00000   0.00000   0.00000   0.00000
 105       30G+3        0.00000   0.00003   0.00000   0.00000   0.00000
 106       30G-3        0.00000   0.00000   0.00012   0.00000   0.00000
 107       30G+4        0.00000   0.00000   0.00000  -0.00025   0.00002
 108       30G-4        0.00000   0.00000   0.00000   0.00000   0.00000
 109       31G 0       -0.00004   0.00000   0.00000   0.00027   0.00000
 110       31G+1        0.00000   0.00002   0.00000   0.00000   0.00000
 111       31G-1        0.00000   0.00000  -0.00031   0.00000   0.00000
 112       31G+2        0.00003   0.00000   0.00000   0.00037   0.00003
 113       31G-2        0.00000   0.00000   0.00000   0.00000   0.00000
 114       31G+3        0.00000  -0.00005   0.00000   0.00000   0.00000
 115       31G-3        0.00000   0.00000  -0.00026   0.00000   0.00000
 116       31G+4       -0.00000   0.00000   0.00000   0.00058   0.00004
 117       31G-4        0.00000   0.00000   0.00000   0.00000   0.00000
 118 2   O  1S         -0.00000   0.00000   0.30785   0.30784   0.00001
 119        2S          0.00000   0.00000   0.45231   0.45237   0.00001
 120        3S         -0.00003   0.00000   0.02459   0.02385   0.00002
 121        4S          0.00015   0.00000  -0.01866  -0.01622   0.00000
 122        5S         -0.00005   0.00000   0.01619   0.00989  -0.00084
 123        6PX         0.00000  -0.00000   0.00000   0.00000   0.00000
 124        6PY         0.00000   0.00000  -0.00105  -0.00094  -0.00002
 125        6PZ        -0.00000   0.00000  -0.00012  -0.00010  -0.00000
 126        7PX         0.00000   0.00002   0.00000   0.00000   0.00000
 127        7PY        -0.00006   0.00000   0.00314   0.00197   0.00025
 128        7PZ        -0.00002   0.00000   0.00045   0.00024   0.00002
 129        8PX         0.00000  -0.00021   0.00000   0.00000   0.00000
 130        8PY         0.00004   0.00000  -0.00328  -0.00073   0.00033
 131        8PZ         0.00015   0.00000  -0.00068  -0.00037  -0.00000
 132        9D 0       -0.00000   0.00000  -0.00009  -0.00011  -0.00001
 133        9D+1        0.00000  -0.00002   0.00000   0.00000   0.00000
 134        9D-1        0.00001   0.00000   0.00005   0.00002  -0.00000
 135        9D+2        0.00001   0.00000  -0.00017  -0.00019  -0.00001
 136        9D-2        0.00000  -0.00001   0.00000   0.00000   0.00000
 137       10D 0       -0.00000   0.00000   0.00051   0.00041   0.00006
 138       10D+1        0.00000   0.00005   0.00000   0.00000   0.00000
 139       10D-1       -0.00001   0.00000  -0.00033  -0.00005  -0.00001
 140       10D+2       -0.00003   0.00000   0.00097   0.00070   0.00010
 141       10D-2        0.00000   0.00001   0.00000   0.00000   0.00000
 142       11F 0        0.00000   0.00000  -0.00006  -0.00001   0.00000
 143       11F+1        0.00000  -0.00001   0.00000   0.00000   0.00000
 144       11F-1       -0.00000   0.00000  -0.00010  -0.00010   0.00000
 145       11F+2        0.00001   0.00000  -0.00008  -0.00002   0.00000
 146       11F-2        0.00000  -0.00000   0.00000   0.00000   0.00000
 147       11F+3        0.00000  -0.00001   0.00000   0.00000   0.00000
 148       11F-3        0.00000   0.00000  -0.00015  -0.00012   0.00000
 149 3   O  1S         -0.00000   0.00000  -0.30785   0.30784   0.00001
 150        2S          0.00000   0.00000  -0.45231   0.45237   0.00001
 151        3S         -0.00003   0.00000  -0.02459   0.02385   0.00002
 152        4S          0.00015   0.00000   0.01866  -0.01622   0.00000
 153        5S         -0.00005   0.00000  -0.01619   0.00989  -0.00084
 154        6PX         0.00000  -0.00000   0.00000   0.00000   0.00000
 155        6PY        -0.00000   0.00000  -0.00105   0.00094   0.00002
 156        6PZ        -0.00000   0.00000   0.00012  -0.00010  -0.00000
 157        7PX         0.00000   0.00002   0.00000   0.00000   0.00000
 158        7PY         0.00006   0.00000   0.00314  -0.00197  -0.00025
 159        7PZ        -0.00002   0.00000  -0.00045   0.00024   0.00002
 160        8PX         0.00000  -0.00021   0.00000   0.00000   0.00000
 161        8PY        -0.00004   0.00000  -0.00328   0.00073  -0.00033
 162        8PZ         0.00015   0.00000   0.00068  -0.00037  -0.00000
 163        9D 0       -0.00000   0.00000   0.00009  -0.00011  -0.00001
 164        9D+1        0.00000  -0.00002   0.00000   0.00000   0.00000
 165        9D-1       -0.00001   0.00000   0.00005  -0.00002   0.00000
 166        9D+2        0.00001   0.00000   0.00017  -0.00019  -0.00001
 167        9D-2        0.00000   0.00001   0.00000   0.00000   0.00000
 168       10D 0       -0.00000   0.00000  -0.00051   0.00041   0.00006
 169       10D+1        0.00000   0.00005   0.00000   0.00000   0.00000
 170       10D-1        0.00001   0.00000  -0.00033   0.00005   0.00001
 171       10D+2       -0.00003   0.00000  -0.00097   0.00070   0.00010
 172       10D-2        0.00000  -0.00001   0.00000   0.00000   0.00000
 173       11F 0        0.00000   0.00000   0.00006  -0.00001   0.00000
 174       11F+1        0.00000  -0.00001   0.00000   0.00000   0.00000
 175       11F-1        0.00000   0.00000  -0.00010   0.00010  -0.00000
 176       11F+2        0.00001   0.00000   0.00008  -0.00002   0.00000
 177       11F-2        0.00000   0.00000   0.00000   0.00000   0.00000
 178       11F+3        0.00000  -0.00001   0.00000   0.00000   0.00000
 179       11F-3       -0.00000   0.00000  -0.00015   0.00012  -0.00000
 180 4   Cl 1S          0.70727   0.70727   0.00000  -0.00000   0.00000
 181        2S         -0.02282  -0.02282   0.00000   0.00001  -0.00000
 182        3S         -0.00737  -0.00737   0.00000   0.00002  -0.00002
 183        4S          0.00291   0.00291   0.00000  -0.00022   0.00008
 184        5S         -0.00275  -0.00272   0.00000   0.00058  -0.00011
 185        6PX        -0.00003  -0.00003   0.00000   0.00001  -0.00000
 186        6PY         0.00000   0.00000  -0.00000   0.00000   0.00000
 187        6PZ         0.00002   0.00002   0.00000  -0.00000   0.00000
 188        7PX         0.00004   0.00006   0.00000  -0.00003   0.00001
 189        7PY         0.00000   0.00000   0.00001   0.00000   0.00000
 190        7PZ        -0.00004  -0.00003   0.00000   0.00002  -0.00001
 191        8PX        -0.00008  -0.00011   0.00000   0.00011  -0.00004
 192        8PY         0.00000   0.00000  -0.00002   0.00000   0.00000
 193        8PZ         0.00006   0.00006   0.00000  -0.00007   0.00003
 194        9PX         0.00007   0.00012   0.00000  -0.00023   0.00004
 195        9PY         0.00000   0.00000  -0.00000   0.00000   0.00000
 196        9PZ        -0.00006  -0.00005   0.00000   0.00014  -0.00003
 197       10PX         0.00069   0.00066   0.00000  -0.00016   0.00007
 198       10PY         0.00000   0.00000   0.00034   0.00000   0.00000
 199       10PZ        -0.00056  -0.00045   0.00000   0.00028  -0.00005
 200       11D 0        0.00001  -0.00001   0.00000   0.00000  -0.00000
 201       11D+1       -0.00007  -0.00007   0.00000   0.00001  -0.00002
 202       11D-1        0.00000   0.00000  -0.00003   0.00000   0.00000
 203       11D+2        0.00005   0.00004   0.00000   0.00002   0.00002
 204       11D-2        0.00000   0.00000   0.00004   0.00000   0.00000
 205       12D 0       -0.00002   0.00003   0.00000  -0.00000   0.00000
 206       12D+1        0.00024   0.00024   0.00000  -0.00016   0.00008
 207       12D-1        0.00000   0.00000   0.00011   0.00000   0.00000
 208       12D+2       -0.00016  -0.00014   0.00000  -0.00001  -0.00005
 209       12D-2        0.00000   0.00000  -0.00013   0.00000   0.00000
 210       13F 0        0.00001   0.00002   0.00000   0.00000   0.00001
 211       13F+1        0.00002   0.00001   0.00000  -0.00002   0.00001
 212       13F-1        0.00000   0.00000   0.00000   0.00000   0.00000
 213       13F+2       -0.00002  -0.00003   0.00000   0.00003  -0.00002
 214       13F-2        0.00000   0.00000  -0.00001   0.00000   0.00000
 215       13F+3        0.00001   0.00001   0.00000  -0.00002   0.00001
 216       13F-3        0.00000   0.00000   0.00002   0.00000   0.00000
 217 5   Cl 1S          0.70727  -0.70727   0.00000  -0.00000   0.00000
 218        2S         -0.02282   0.02282   0.00000   0.00001  -0.00000
 219        3S         -0.00737   0.00737   0.00000   0.00002  -0.00002
 220        4S          0.00291  -0.00291   0.00000  -0.00022   0.00008
 221        5S         -0.00275   0.00272   0.00000   0.00058  -0.00011
 222        6PX         0.00003  -0.00003   0.00000  -0.00001   0.00000
 223        6PY         0.00000   0.00000  -0.00000   0.00000   0.00000
 224        6PZ         0.00002  -0.00002   0.00000  -0.00000   0.00000
 225        7PX        -0.00004   0.00006   0.00000   0.00003  -0.00001
 226        7PY         0.00000   0.00000   0.00001   0.00000   0.00000
 227        7PZ        -0.00004   0.00003   0.00000   0.00002  -0.00001
 228        8PX         0.00008  -0.00011   0.00000  -0.00011   0.00004
 229        8PY         0.00000   0.00000  -0.00002   0.00000   0.00000
 230        8PZ         0.00006  -0.00006   0.00000  -0.00007   0.00003
 231        9PX        -0.00007   0.00012   0.00000   0.00023  -0.00004
 232        9PY         0.00000   0.00000  -0.00000   0.00000   0.00000
 233        9PZ        -0.00006   0.00005   0.00000   0.00014  -0.00003
 234       10PX        -0.00069   0.00066   0.00000   0.00016  -0.00007
 235       10PY         0.00000   0.00000   0.00034   0.00000   0.00000
 236       10PZ        -0.00056   0.00045   0.00000   0.00028  -0.00005
 237       11D 0        0.00001   0.00001   0.00000   0.00000  -0.00000
 238       11D+1        0.00007  -0.00007   0.00000  -0.00001   0.00002
 239       11D-1        0.00000   0.00000  -0.00003   0.00000   0.00000
 240       11D+2        0.00005  -0.00004   0.00000   0.00002   0.00002
 241       11D-2        0.00000   0.00000  -0.00004   0.00000   0.00000
 242       12D 0       -0.00002  -0.00003   0.00000  -0.00000   0.00000
 243       12D+1       -0.00024   0.00024   0.00000   0.00016  -0.00008
 244       12D-1        0.00000   0.00000   0.00011   0.00000   0.00000
 245       12D+2       -0.00016   0.00014   0.00000  -0.00001  -0.00005
 246       12D-2        0.00000   0.00000   0.00013   0.00000   0.00000
 247       13F 0        0.00001  -0.00002   0.00000   0.00000   0.00001
 248       13F+1       -0.00002   0.00001   0.00000   0.00002  -0.00001
 249       13F-1        0.00000   0.00000   0.00000   0.00000   0.00000
 250       13F+2       -0.00002   0.00003   0.00000   0.00003  -0.00002
 251       13F-2        0.00000   0.00000   0.00001   0.00000   0.00000
 252       13F+3       -0.00001   0.00001   0.00000   0.00002  -0.00001
 253       13F-3        0.00000   0.00000   0.00002   0.00000   0.00000
                           6         7         8         9        10
                        (A1)--O   (B1)--O   (A1)--O   (B1)--O   (B2)--O
     Eigenvalues --    -9.51175  -9.51175  -7.60455  -7.60397  -7.57055
   1 1   U  1S         -0.00000   0.00000  -0.00000   0.00000   0.00000
   2        2S         -0.00002   0.00000  -0.00030   0.00000   0.00000
   3        3S          0.00000   0.00000   0.00000   0.00000   0.00000
   4        4S          0.00005   0.00000   0.00077   0.00000   0.00000
   5        5S         -0.00023   0.00000  -0.00110   0.00000   0.00000
   6        6S          0.00043   0.00000   0.00027   0.00000   0.00000
   7        7S         -0.00014   0.00000   0.00014   0.00000   0.00000
   8        8S         -0.00195   0.00000   0.00007   0.00000   0.00000
   9        9S          0.01088   0.00000  -0.00069   0.00000   0.00000
  10       10S         -0.00208   0.00000   0.00019   0.00000   0.00000
  11       11PX         0.00000  -0.00001   0.00000   0.03541   0.00000
  12       11PY         0.00000   0.00000   0.00000   0.00000   0.03542
  13       11PZ         0.00000   0.00000   0.03541   0.00000   0.00000
  14       12PX         0.00000   0.00005   0.00000   0.06591   0.00000
  15       12PY         0.00000   0.00000   0.00000   0.00000   0.06563
  16       12PZ        -0.00004   0.00000   0.06591   0.00000   0.00000
  17       13PX         0.00000  -0.00013   0.00000  -0.34914   0.00000
  18       13PY         0.00000   0.00000   0.00000   0.00000  -0.34804
  19       13PZ         0.00009   0.00000  -0.34918   0.00000   0.00000
  20       14PX         0.00000   0.00029   0.00000   0.59690   0.00000
  21       14PY         0.00000   0.00000   0.00000   0.00000   0.59470
  22       14PZ        -0.00021   0.00000   0.59706   0.00000   0.00000
  23       15PX         0.00000  -0.00045   0.00000   0.57944   0.00000
  24       15PY         0.00000   0.00000   0.00000   0.00000   0.58027
  25       15PZ         0.00032   0.00000   0.57929   0.00000   0.00000
  26       16PX         0.00000   0.00072   0.00000   0.06365   0.00000
  27       16PY         0.00000   0.00000   0.00000   0.00000   0.06494
  28       16PZ        -0.00051   0.00000   0.06357   0.00000   0.00000
  29       17PX         0.00000  -0.00222   0.00000  -0.00987   0.00000
  30       17PY         0.00000   0.00000   0.00000   0.00000  -0.01059
  31       17PZ         0.00163   0.00000  -0.00958   0.00000   0.00000
  32       18PX         0.00000   0.00908   0.00000   0.00328   0.00000
  33       18PY         0.00000   0.00000   0.00000   0.00000  -0.00406
  34       18PZ        -0.00686   0.00000   0.00304   0.00000   0.00000
  35       19PX         0.00000   0.00056   0.00000  -0.00045   0.00000
  36       19PY         0.00000   0.00000   0.00000   0.00000   0.00020
  37       19PZ        -0.00023   0.00000  -0.00049   0.00000   0.00000
  38       20D 0        0.00001   0.00000   0.00010   0.00000   0.00000
  39       20D+1        0.00000   0.00012   0.00000  -0.00013   0.00000
  40       20D-1        0.00000   0.00000   0.00000   0.00000   0.00047
  41       20D+2       -0.00008   0.00000  -0.00032   0.00000   0.00000
  42       20D-2        0.00000   0.00000   0.00000   0.00000   0.00000
  43       21D 0       -0.00002   0.00000   0.00053   0.00000   0.00000
  44       21D+1        0.00000  -0.00033   0.00000   0.00002   0.00000
  45       21D-1        0.00000   0.00000   0.00000   0.00000   0.00023
  46       21D+2        0.00023   0.00000  -0.00011   0.00000   0.00000
  47       21D-2        0.00000   0.00000   0.00000   0.00000   0.00000
  48       22D 0       -0.00000   0.00000  -0.00001   0.00000   0.00000
  49       22D+1        0.00000   0.00063   0.00000  -0.00013   0.00000
  50       22D-1        0.00000   0.00000   0.00000   0.00000   0.00035
  51       22D+2       -0.00049   0.00000  -0.00026   0.00000   0.00000
  52       22D-2        0.00000   0.00000   0.00000   0.00000   0.00000
  53       23D 0        0.00010   0.00000   0.00027   0.00000   0.00000
  54       23D+1        0.00000  -0.00133   0.00000   0.00052   0.00000
  55       23D-1        0.00000   0.00000   0.00000   0.00000  -0.00037
  56       23D+2        0.00113   0.00000   0.00062   0.00000   0.00000
  57       23D-2        0.00000   0.00000   0.00000   0.00000   0.00000
  58       24D 0       -0.00016   0.00000  -0.00012   0.00000   0.00000
  59       24D+1        0.00000  -0.00448   0.00000  -0.00057   0.00000
  60       24D-1        0.00000   0.00000   0.00000   0.00000  -0.00036
  61       24D+2        0.00331   0.00000  -0.00050   0.00000   0.00000
  62       24D-2        0.00000   0.00000   0.00000   0.00000   0.00000
  63       25F 0       -0.00001   0.00000   0.00125   0.00000   0.00000
  64       25F+1        0.00000  -0.00001   0.00000   0.00049   0.00000
  65       25F-1        0.00000   0.00000   0.00000   0.00000   0.00188
  66       25F+2        0.00000   0.00000   0.00154   0.00000   0.00000
  67       25F-2        0.00000   0.00000   0.00000   0.00000   0.00000
  68       25F+3        0.00000   0.00001   0.00000   0.00185   0.00000
  69       25F-3        0.00000   0.00000   0.00000   0.00000   0.00242
  70       26F 0        0.00004   0.00000  -0.00032   0.00000   0.00000
  71       26F+1        0.00000   0.00003   0.00000  -0.00008   0.00000
  72       26F-1        0.00000   0.00000   0.00000   0.00000  -0.00047
  73       26F+2       -0.00000   0.00000  -0.00028   0.00000   0.00000
  74       26F-2        0.00000   0.00000   0.00000   0.00000   0.00000
  75       26F+3        0.00000  -0.00006   0.00000  -0.00033   0.00000
  76       26F-3        0.00000   0.00000   0.00000   0.00000  -0.00060
  77       27F 0       -0.00001   0.00000   0.00044   0.00000   0.00000
  78       27F+1        0.00000  -0.00001   0.00000  -0.00002   0.00000
  79       27F-1        0.00000   0.00000   0.00000   0.00000   0.00039
  80       27F+2       -0.00010   0.00000   0.00013   0.00000   0.00000
  81       27F-2        0.00000   0.00000   0.00000   0.00000   0.00000
  82       27F+3        0.00000   0.00020   0.00000   0.00019   0.00000
  83       27F-3        0.00000   0.00000   0.00000   0.00000   0.00044
  84       28F 0        0.00145   0.00000  -0.00030   0.00000   0.00000
  85       28F+1        0.00000   0.00089   0.00000   0.00007   0.00000
  86       28F-1        0.00000   0.00000   0.00000   0.00000   0.00111
  87       28F+2       -0.00148   0.00000   0.00001   0.00000   0.00000
  88       28F-2        0.00000   0.00000   0.00000   0.00000   0.00000
  89       28F+3        0.00000   0.00013   0.00000  -0.00010   0.00000
  90       28F-3        0.00000   0.00000   0.00000   0.00000   0.00150
  91       29G 0       -0.00002   0.00000  -0.00003   0.00000   0.00000
  92       29G+1        0.00000   0.00001   0.00000   0.00003   0.00000
  93       29G-1        0.00000   0.00000   0.00000   0.00000  -0.00006
  94       29G+2        0.00001   0.00000  -0.00015   0.00000   0.00000
  95       29G-2        0.00000   0.00000   0.00000   0.00000   0.00000
  96       29G+3        0.00000  -0.00002   0.00000  -0.00013   0.00000
  97       29G-3        0.00000   0.00000   0.00000   0.00000  -0.00013
  98       29G+4       -0.00000   0.00000  -0.00001   0.00000   0.00000
  99       29G-4        0.00000   0.00000   0.00000   0.00000   0.00000
 100       30G 0        0.00006   0.00000   0.00007   0.00000   0.00000
 101       30G+1        0.00000  -0.00002   0.00000   0.00010   0.00000
 102       30G-1        0.00000   0.00000   0.00000   0.00000   0.00008
 103       30G+2       -0.00004   0.00000  -0.00012   0.00000   0.00000
[...]
 215       13F+3        0.00023
 216       13F-3        0.00022
 217 5   Cl 1S          2.01312
 218        2S          0.43414
 219        3S          1.52200
 220        4S          1.11946
 221        5S          0.87920
 222        6PX         1.39482
 223        6PY         1.39907
 224        6PZ         1.39542
 225        7PX         0.55810
 226        7PY         0.55573
 227        7PZ         0.55783
 228        8PX         0.35746
 229        8PY         0.38308
 230        8PZ         0.36207
 231        9PX         0.94430
 232        9PY         0.99118
 233        9PZ         0.94692
 234       10PX         0.49678
 235       10PY         0.54816
 236       10PZ         0.51228
 237       11D 0        0.00057
 238       11D+1        0.00140
 239       11D-1        0.00035
 240       11D+2        0.00089
 241       11D-2        0.00063
 242       12D 0        0.00467
 243       12D+1        0.00669
 244       12D-1        0.00225
 245       12D+2        0.00456
 246       12D-2        0.00389
 247       13F 0        0.00015
 248       13F+1        0.00037
 249       13F-1        0.00003
 250       13F+2        0.00039
 251       13F-2        0.00025
 252       13F+3        0.00023
 253       13F-3        0.00022
          Condensed to atoms (all electrons):
               1          2          3          4          5
     1  U   29.337200   0.357025   0.357025   0.187824   0.187824
     2  O    0.357025   8.006111   0.001450   0.011655   0.011655
     3  O    0.357025   0.001450   8.006111   0.011655   0.011655
     4  Cl   0.187824   0.011655   0.011655  17.184631   0.002888
     5  Cl   0.187824   0.011655   0.011655   0.002888  17.184631
 Mulliken charges:
               1
     1  U    1.573102
     2  O   -0.387897
     3  O   -0.387897
     4  Cl  -0.398654
     5  Cl  -0.398654
 Sum of Mulliken charges =  -0.00000
 Mulliken charges with hydrogens summed into heavy atoms:
               1
     1  U    1.573102
     2  O   -0.387897
     3  O   -0.387897
     4  Cl  -0.398654
     5  Cl  -0.398654
 Electronic spatial extent (au):  <R**2>=           1024.3376
 Charge=             -0.0000 electrons
 Dipole moment (field-independent basis, Debye):
    X=             -0.0000    Y=              0.0000    Z=              4.8556  Tot=              4.8556
 Quadrupole moment (field-independent basis, Debye-Ang):
   XX=            -78.7240   YY=            -78.6376   ZZ=            -68.3070
   XY=              0.0000   XZ=              0.0000   YZ=             -0.0000
 Traceless Quadrupole moment (field-independent basis, Debye-Ang):
   XX=             -3.5011   YY=             -3.4148   ZZ=              6.9158
   XY=              0.0000   XZ=              0.0000   YZ=             -0.0000
 Octapole moment (field-independent basis, Debye-Ang**2):
  XXX=              0.0000  YYY=             -0.0000  ZZZ=             49.9812  XYY=              0.0000
  XXY=             -0.0000  XXZ=             24.8934  XZZ=             -0.0000  YZZ=             -0.0000
  YYZ=              9.0404  XYZ=             -0.0000
 Hexadecapole moment (field-independent basis, Debye-Ang**3):
 XXXX=           -751.8454 YYYY=           -297.0173 ZZZZ=           -306.4622 XXXY=              0.0000
 XXXZ=              0.0000 YYYX=              0.0000 YYYZ=              0.0000 ZZZX=              0.0000
 ZZZY=              0.0000 XXYY=           -168.4214 XXZZ=           -175.6143 YYZZ=           -101.6588
 XXYZ=              0.0000 YYXZ=             -0.0000 ZZXY=              0.0000
 N-N= 5.250185521211D+02 E-N=-4.564379665150D+03  KE= 1.218622408823D+03
 Symmetry A1   KE= 5.502361176605D+02
 Symmetry A2   KE= 6.471151942988D+01
 Symmetry B1   KE= 4.507787983389D+02
 Symmetry B2   KE= 1.528959733940D+02
 Orbital energies and kinetic energies (alpha):
                                 1                 2
   1         (A1)--O        -101.684609        137.099320
   2         (B1)--O        -101.684609        137.099266
   3         (B2)--O         -19.276797         29.110785
   4         (A1)--O         -19.276791         29.111388
   5         (A1)--O         -12.167020          4.797323
   6         (A1)--O          -9.511751         21.560990
   7         (B1)--O          -9.511750         21.561189
   8         (A1)--O          -7.604547          5.115962
   9         (B1)--O          -7.603972          5.115915
  10         (B2)--O          -7.570551          5.108833
  11         (B1)--O          -7.241142         20.566038
  12         (A1)--O          -7.241141         20.565997
  13         (A1)--O          -7.240501         20.568589
  14         (B1)--O          -7.240501         20.568581
  15         (B2)--O          -7.239030         20.573102
  16         (A2)--O          -7.239029         20.573026
  17         (A1)--O          -3.968374          7.298262
  18         (B1)--O          -3.967956          7.300373
  19         (B2)--O          -3.954213          7.285205
  20         (A2)--O          -3.954033          7.285802
  21         (A1)--O          -3.947162          7.272207
  22         (A1)--O          -1.980314          2.810888
  23         (B2)--O          -1.263356          2.412403
  24         (A1)--O          -1.049491          2.738158
  25         (B1)--O          -1.026725          2.310946
  26         (A1)--O          -0.990477          2.877684
  27         (A1)--O          -0.806992          3.177760
  28         (B1)--O          -0.798277          3.235122
  29         (B2)--O          -0.759524          3.289506
  30         (B2)--O          -0.463898          2.112266
  31         (A2)--O          -0.462882          2.049547
  32         (A1)--O          -0.450361          2.604842
  33         (B1)--O          -0.438082          2.803782
  34         (A1)--O          -0.435309          2.879474
  35         (B2)--O          -0.401143          3.808324
  36         (A1)--O          -0.369303          2.422888
  37         (B1)--O          -0.359256          2.425122
  38         (A1)--O          -0.346193          2.216327
  39         (B1)--O          -0.335691          2.403066
  40         (A2)--O          -0.333467          2.447385
  41         (B2)--O          -0.317741          2.747563
  42         (A1)--V          -0.149183          5.536580
  43         (B1)--V          -0.148372          5.727839
  44         (B2)--V          -0.144413          5.798564
  45         (A2)--V          -0.142591          5.775414
  46         (A1)--V          -0.103684          3.235499
  47         (B1)--V          -0.091222          4.804492
  48         (A1)--V          -0.049808          3.353188
  49         (A1)--V          -0.018054          1.511056
  50         (B1)--V          -0.012455          2.359139
  51         (A1)--V           0.033814          0.501835
  52         (B2)--V           0.036589          1.608038
  53         (B2)--V           0.045941          3.185209
  54         (B1)--V           0.053008          0.737850
  55         (A1)--V           0.062898          0.948750
  56         (A2)--V           0.093671          2.191095
  57         (B2)--V           0.111939          2.555464
  58         (B2)--V           0.184230          1.064769
  59         (A1)--V           0.187409          0.778563
  60         (A1)--V           0.230086          1.248017
  61         (B1)--V           0.234485          1.255370
  62         (A2)--V           0.257681          1.109871
  63         (B1)--V           0.271912          1.390676
  64         (B2)--V           0.287005          1.934496
  65         (A1)--V           0.288475          1.479019
  66         (A1)--V           0.312451          1.500393
  67         (B2)--V           0.316890          1.425408
  68         (B1)--V           0.333760          1.605106
  69         (A1)--V           0.346097          1.495633
  70         (A2)--V           0.350319          1.669172
  71         (B1)--V           0.370352          1.646872
  72         (A2)--V           0.395951          1.750951
  73         (A1)--V           0.396890          1.540441
  74         (B2)--V           0.396938          1.616070
  75         (B1)--V           0.408429          1.666835
  76         (A1)--V           0.411245          1.610244
  77         (B2)--V           0.434765          1.690346
  78         (B1)--V           0.461444          1.980481
  79         (A2)--V           0.463670          1.610184
  80         (A1)--V           0.505186          1.597538
  81         (B1)--V           0.520320          1.602898
  82         (A1)--V           0.531947          1.571468
  83         (B2)--V           0.532268          1.710164
  84         (A1)--V           0.605723          1.547204
  85         (B1)--V           0.624688          2.009618
  86         (B2)--V           0.625784          1.900137
  87         (A1)--V           0.642248          3.044931
  88         (A2)--V           0.643562          1.788490
  89         (A1)--V           0.664116          1.933479
  90         (B2)--V           0.671935          1.569835
  91         (B1)--V           0.716893          1.810541
  92         (A1)--V           0.728130          1.991073
  93         (B1)--V           0.742213          1.943374
  94         (A2)--V           0.749501          1.670730
  95         (B2)--V           0.759663          1.562992
  96         (A1)--V           0.799569          2.126137
  97         (B2)--V           0.892140          1.990799
  98         (A1)--V           1.038440          4.120003
  99         (B1)--V           1.049900          4.185079
 100         (A1)--V           1.155073          3.869364
 101         (A1)--V           1.259836          3.700099
 102         (B1)--V           1.280099          3.686932
 103         (B1)--V           1.384325          3.871919
 104         (B2)--V           1.393272          4.073174
 105         (A2)--V           1.393932          4.119232
 106         (A1)--V           1.394774          3.308516
 107         (A1)--V           1.444935          4.060455
 108         (B2)--V           1.446503          3.953829
 109         (B1)--V           1.472593          4.171023
 110         (A1)--V           1.489683          3.864995
 111         (B1)--V           1.498566          3.436187
 112         (B2)--V           1.529801          3.052351
 113         (A2)--V           1.570898          3.168146
 114         (B2)--V           1.621833          3.278551
 115         (A2)--V           1.633950          3.240547
 116         (A1)--V           1.703145          4.015040
 117         (A1)--V           1.766036          4.816506
 118         (A2)--V           1.771658          4.891409
 119         (A2)--V           1.774746          4.789665
 120         (B2)--V           1.800138          4.775470
 121         (B1)--V           1.804884          4.779698
 122         (A1)--V           1.827530          4.728238
 123         (B2)--V           1.827710          4.696743
 124         (B1)--V           1.874897          4.829352
 125         (B1)--V           1.908580          4.426576
 126         (A1)--V           1.910610          4.434838
 127         (B2)--V           1.916943          4.429730
 128         (A1)--V           1.945119          4.353189
 129         (B1)--V           1.976819          5.257291
 130         (A2)--V           1.993372          4.149902
 131         (B2)--V           1.998220          4.394648
 132         (B1)--V           2.071392          3.759595
 133         (A1)--V           2.080768          4.014474
 134         (A2)--V           2.091828          3.202265
 135         (B2)--V           2.094185          3.805495
 136         (A1)--V           2.097619          3.336948
 137         (B1)--V           2.102284          3.234961
 138         (A2)--V           2.104197          3.200528
 139         (B2)--V           2.136195          3.379342
 140         (A1)--V           2.136653          3.518657
 141         (B1)--V           2.160430          4.207332
 142         (B2)--V           2.184196          4.261160
 143         (B1)--V           2.190883          3.872899
 144         (A1)--V           2.226745          5.493515
 145         (A2)--V           2.260499          6.717463
 146         (B1)--V           2.261596          6.767351
 147         (A1)--V           2.275614          5.974689
 148         (A1)--V           2.279627          5.361172
 149         (B2)--V           2.295749          5.194137
 150         (B2)--V           2.324395          6.449505
 151         (A1)--V           2.348024          5.071036
 152         (B1)--V           2.358088          5.311124
 153         (A2)--V           2.405030          5.081114
 154         (A1)--V           2.453097          5.905211
 155         (B1)--V           2.462779          6.050223
 156         (A2)--V           2.484702          6.072325
 157         (A1)--V           2.514634          6.202041
 158         (B2)--V           2.526351          6.167372
 159         (B1)--V           2.529222          6.225291
 160         (B2)--V           2.562184          6.636902
 161         (A2)--V           2.570081          6.342819
 162         (A1)--V           2.658938          7.176773
 163         (B1)--V           2.818949          6.891499
 164         (A1)--V           2.828289          6.978977
 165         (B2)--V           2.953930          7.152233
 166         (A2)--V           2.998680          7.095736
 167         (A1)--V           3.004341          7.197572
 168         (A1)--V           3.053354          7.626435
 169         (B1)--V           3.096722          7.114884
 170         (B2)--V           3.102192          7.782824
 171         (A1)--V           4.001919          9.055539
 172         (B2)--V           4.343257          9.026893
 173         (B2)--V           4.540443          9.472268
 174         (B2)--V           4.641156         11.969954
 175         (A2)--V           4.665585         11.793877
 176         (B1)--V           4.743317         12.548662
 177         (A1)--V           4.771132         12.170978
 178         (A1)--V           4.930718         11.792104
 179         (B1)--V           4.986985         12.296608
 180         (A1)--V           5.042597          7.334844
 181         (B1)--V           5.044294          7.254830
 182         (A2)--V           5.057096          6.450076
 183         (B2)--V           5.058119          6.447877
 184         (B1)--V           5.072740          6.518379
 185         (A2)--V           5.073154          8.414692
 186         (A1)--V           5.081889          6.804735
 187         (B2)--V           5.130936          7.908938
 188         (B2)--V           5.158985          7.213812
 189         (A2)--V           5.173094          7.403256
 190         (A1)--V           5.174846         10.005386
 191         (A1)--V           5.297311          7.338532
 192         (B1)--V           5.313606          7.170341
 193         (B2)--V           5.378148         11.311529
 194         (A1)--V           6.111008         11.513971
 195         (B1)--V           6.127639         11.835148
 196         (A1)--V           6.136192         14.423074
 197         (B1)--V           6.163909         15.409094
 198         (A2)--V           6.164818         16.031536
 199         (B2)--V           6.174165         15.781052
 200         (A1)--V           6.203845         13.567449
 201         (B2)--V           6.266370          9.998500
 202         (A2)--V           6.276041         11.554153
 203         (B1)--V           6.286117         13.573458
 204         (A1)--V           6.314103         13.732839
 205         (A2)--V           6.316068          9.736679
 206         (B2)--V           6.369004         10.955993
 207         (A1)--V           6.377786         12.972791
 208         (B1)--V           6.396095         13.510536
 209         (B2)--V           6.533973         11.295008
 210         (A1)--V           6.646657         10.934912
 211         (B1)--V           6.675688         10.390717
 212         (A1)--V           6.842660         11.209255
 213         (B2)--V           7.046623         14.542641
 214         (A2)--V           7.061979         14.004902
 215         (A1)--V           7.163996         15.926731
 216         (B2)--V           7.491969         12.702964
 217         (A1)--V           8.103355         16.219517
 218         (A2)--V           8.166861         16.135117
 219         (B2)--V           8.279563         15.990533
 220         (B1)--V           8.324941         16.426596
 221         (A1)--V           9.542758         17.135366
 222         (B1)--V          10.768623         33.605573
 223         (A1)--V          10.769648         33.600996
 224         (A2)--V          10.771515         33.585837
 225         (B2)--V          10.793658         33.608152
 226         (A1)--V          10.991985         33.592924
 227         (B1)--V          11.018325         33.599123
 228         (A2)--V          13.373477         34.652765
 229         (B2)--V          13.381382         34.651186
 230         (B1)--V          13.389974         34.637925
 231         (A1)--V          13.408535         34.634427
 232         (A1)--V          13.456755         34.631579
 233         (B1)--V          13.472282         34.632803
 234         (A2)--V          13.743680         34.574826
 235         (B2)--V          13.837011         34.608973
 236         (A1)--V          14.177603         34.585361
 237         (A1)--V          21.479326         43.570673
 238         (B1)--V          21.522276         43.645535
 239         (B2)--V          21.722934         43.954291
 240         (B1)--V          25.119694         44.413776
 241         (A1)--V          25.131723         44.428402
 242         (A1)--V          32.174831        437.412756
 243         (A1)--V          43.731907        108.741089
 244         (B2)--V          43.903612        108.919968
 245         (A1)--V          47.906888         92.990098
 246         (B1)--V          47.943966         93.013926
 247         (B2)--V          48.120845         93.116497
 248         (A1)--V          59.211287         43.870496
 249         (A1)--V         122.154251        236.557514
 250         (B1)--V         122.204719        236.611794
 251         (B2)--V         122.437113        236.841257
 252         (A1)--V         229.199549        139.230642
 253         (A1)--V         673.725739       1054.467883
 Total kinetic energy from orbitals= 1.218622408823D+03
 No NMR shielding tensors so no spin-rotation constants.
 Leave Link  601 at Wed Jan 12 14:53:41 2022, MaxMem=  1048576000 cpu:               1.9 elap:               0.6
 (Enter /home/pcmt/gaussian/g16.C.01/g16/l9999.exe)

 Test job not archived.
 1\1\GINC-U-0-13\SP\RPBE1PBE\Gen\Cl2O2U1\VALLET\12-Jan-2022\0\\#p PBE1P
 BE/GEN GFInput GFPrint 5D 7F IOP(6/7=3, 4/69=2, 6/10=1) Pseudo=Read Em
 piricalDispersion=GD3BJ Symm=(Loose) Int=(UltraFine) Guess=(CheckPoint
 ) Geom=CheckPoint Scf=(NoVarAcc,MaxCycle=100,conver=8) Output=WFX\\[UO
 2Cl4]2- - PBE0+D3BJ - GS\\0,1\U,0,0.,0.2485734008,0.\O,0,-1.7216134772
 ,0.450053995,0.\O,0,1.7216134772,0.450053995,0.\Cl,0,0.,-1.2218361514,
 -2.030575914\Cl,0,0.,-1.2218361514,2.030575914\\Version=ES64L-G16RevC.
 01\State=1-A1\HF=-1547.6456514\RMSD=5.586e-09\Dipole=0.,1.910336,0.\Qu
 adrupole=-2.5387848,5.1417645,-2.6029797,0.,0.,0.\PG=C02V [C2(U1),SGV(
 O2),SGV'(Cl2)]\\@

 Writing a WFNX file to "gs-uo2_cl2.pbe0-d3.QTAIM.wfx"


 THERE ONCE WAS A GIRL NAMED IRENE,
 WHO LIVED ON DISTILLED KEROSENE,
      BUT SHE STARTED ABSORBIN'
      A NEW HYDROCARBON,
 AND SINCE THEN HAS NEVER BENZENE.
 Job cpu time:       0 days  0 hours 11 minutes 17.9 seconds.
 Elapsed time:       0 days  0 hours  3 minutes 17.9 seconds.
 File lengths (MBytes):  RWF=     29 Int=      0 D2E=      0 Chk=      6 Scr=      1
 Normal termination of Gaussian 16 at Wed Jan 12 14:53:41 2022.
