 Entering Gaussian System, Link 0=/home/pcmt/gaussian/g16.C.01/g16/g16
 AtFile(1): /home/vallet/basis/U-ECP60MWB_SEG
 AtFile(1): /home/vallet/basis/Ar-ECP10MWB_SEG
 AtFile(1): /home/vallet/basis/U-ECP60MWB
 AtFile(1): /home/vallet/basis/Ar-ECP10MWB
 Initial command:
 /home/pcmt/gaussian/g16.C.01/g16/l1.exe "/state/partition1/vallet/922763.phlam-s-sakura/Gau-120318.inp" -scrdir="/state/partition1/vallet/922763.phlam-s-sakura/"
 Entering Link 1 = /home/pcmt/gaussian/g16.C.01/g16/l1.exe PID=    120319.
  
 Copyright (c) 1988-2019, Gaussian, Inc.  All Rights Reserved.
  
 This is part of the Gaussian(R) 16 program.  It is based on
 the Gaussian(R) 09 system (copyright 2009, Gaussian, Inc.),
 the Gaussian(R) 03 system (copyright 2003, Gaussian, Inc.),
 the Gaussian(R) 98 system (copyright 1998, Gaussian, Inc.),
 the Gaussian(R) 94 system (copyright 1995, Gaussian, Inc.),
 the Gaussian 92(TM) system (copyright 1992, Gaussian, Inc.),
 the Gaussian 90(TM) system (copyright 1990, Gaussian, Inc.),
 the Gaussian 88(TM) system (copyright 1988, Gaussian, Inc.),
 the Gaussian 86(TM) system (copyright 1986, Carnegie Mellon
 University), and the Gaussian 82(TM) system (copyright 1983,
 Carnegie Mellon University). Gaussian is a federally registered
 trademark of Gaussian, Inc.
  
 This software contains proprietary and confidential information,
 including trade secrets, belonging to Gaussian, Inc.
  
 This software is provided under written license and may be
 used, copied, transmitted, or stored only in accord with that
 written license.
  
 The following legend is applicable only to US Government
 contracts under FAR:
  
                    RESTRICTED RIGHTS LEGEND
  
 Use, reproduction and disclosure by the US Government is
 subject to restrictions as set forth in subparagraphs (a)
 and (c) of the Commercial Computer Software - Restricted
 Rights clause in FAR 52.227-19.
  
 Gaussian, Inc.
 340 Quinnipiac St., Bldg. 40, Wallingford CT 06492
  
  
 ---------------------------------------------------------------
 Warning -- This program may not be used in any manner that
 competes with the business of Gaussian, Inc. or will provide
 assistance to any competitor of Gaussian, Inc.  The licensee
 of this program is prohibited from giving any competitor of
 Gaussian, Inc. access to this program.  By using this program,
 the user acknowledges that Gaussian, Inc. is engaged in the
 business of creating and licensing software in the field of
 computational chemistry and represents and warrants to the
 licensee that it is not a competitor of Gaussian, Inc. and that
 it will not use this program in any manner prohibited above.
 ---------------------------------------------------------------
  

 Cite this work as:
 Gaussian 16, Revision C.01,
 M. J. Frisch, G. W. Trucks, H. B. Schlegel, G. E. Scuseria, 
 M. A. Robb, J. R. Cheeseman, G. Scalmani, V. Barone, 
 G. A. Petersson, H. Nakatsuji, X. Li, M. Caricato, A. V. Marenich, 
 J. Bloino, B. G. Janesko, R. Gomperts, B. Mennucci, H. P. Hratchian, 
 J. V. Ortiz, A. F. Izmaylov, J. L. Sonnenberg, D. Williams-Young, 
 F. Ding, F. Lipparini, F. Egidi, J. Goings, B. Peng, A. Petrone, 
 T. Henderson, D. Ranasinghe, V. G. Zakrzewski, J. Gao, N. Rega, 
 G. Zheng, W. Liang, M. Hada, M. Ehara, K. Toyota, R. Fukuda, 
 J. Hasegawa, M. Ishida, T. Nakajima, Y. Honda, O. Kitao, H. Nakai, 
 T. Vreven, K. Throssell, J. A. Montgomery, Jr., J. E. Peralta, 
 F. Ogliaro, M. J. Bearpark, J. J. Heyd, E. N. Brothers, K. N. Kudin, 
 V. N. Staroverov, T. A. Keith, R. Kobayashi, J. Normand, 
 K. Raghavachari, A. P. Rendell, J. C. Burant, S. S. Iyengar, 
 J. Tomasi, M. Cossi, J. M. Millam, M. Klene, C. Adamo, R. Cammi, 
 J. W. Ochterski, R. L. Martin, K. Morokuma, O. Farkas, 
 J. B. Foresman, and D. J. Fox, Gaussian, Inc., Wallingford CT, 2019.
 
 ******************************************
 Gaussian 16:  ES64L-G16RevC.01  3-Jul-2019
                22-Jan-2023 
 ******************************************
 %mem=8000Mb
 %NProc=4
 Will use up to    4 processors via shared memory.
 %chk=gs-uo2_cl2_2ar.pbe0-d3.optg.chk
 ----------------------------------------------------------------------
 #p PBE1PBE/GEN GFInput GFPrint 5D 7F IOP(6/7=3, 4/69=2, 6/10=1) Pseudo
 =Read EmpiricalDispersion=GD3BJ Symm=(Loose) Int=(UltraFine) Guess=(Re
 ad) Scf=(NoVarAcc,MaxCycle=100,conver=8) Opt=Tight
 ----------------------------------------------------------------------
 1/7=10,18=20,19=15,26=4,38=1/1,3;
 2/9=110,12=2,17=4,18=3,40=1/2;
 3/5=7,8=11,11=2,16=1,17=8,24=110,25=1,30=1,71=1,74=-13,75=-5,116=-2,124=41/1,2,3;
 4/5=1,69=2/1;
 5/5=2,6=8,7=100,38=6/2;
 6/7=3,8=2,9=2,10=1,28=1/1;
 7//1,2,3,16;
 1/7=10,18=20,19=15,26=4/3(2);
 2/9=110/2;
 99//99;
 2/9=110/2;
 3/5=7,6=1,8=11,11=2,16=1,17=8,25=1,30=1,71=1,74=-13,75=-5,82=7,124=41/1,2,3;
 4/5=5,16=3,69=2/1;
 5/5=2,6=8,7=100,38=1/2;
 7//1,2,3,16;
 1/7=10,18=20,19=15,26=4/3(-5);
 2/9=110/2;
 6/7=3,8=2,9=2,10=1,19=2,28=1/1;
 99/9=1/99;
 Leave Link    1 at Sun Jan 22 18:31:58 2023, MaxMem=  1048576000 cpu:               0.3 elap:               0.1
 (Enter /home/pcmt/gaussian/g16.C.01/g16/l101.exe)
 ------------------------------
 [UO2Cl2Ar2]2- - PBE0+D3BJ - GS
 ------------------------------
 Symbolic Z-matrix:
 Charge =  0 Multiplicity = 1
 U                     0.       -0.00432   0. 
 O                    -1.77434  -0.05158   0. 
 O                     1.77434  -0.05158   0. 
 Cl                    0.       -1.47154   2.07688 
 Cl                    0.       -1.47154  -2.07688 
 Ar                    0.        1.42127  -2.5979 
 Ar                    0.        1.42127   2.5979 
 
 Add virtual bond connecting atoms Ar6        and U1         Dist= 5.60D+00.
 Add virtual bond connecting atoms Ar6        and Cl5        Dist= 5.55D+00.
 Add virtual bond connecting atoms Ar7        and U1         Dist= 5.60D+00.
 Add virtual bond connecting atoms Ar7        and Cl4        Dist= 5.55D+00.
 ITRead=  0  0  0  0  0  0  0
 MicOpt= -1 -1 -1 -1 -1 -1 -1
 NAtoms=      7 NQM=        7 NQMF=       0 NMMI=      0 NMMIF=      0
                NMic=       0 NMicF=      0.
                    Isotopes and Nuclear Properties:
 (Nuclear quadrupole moments (NQMom) in fm**2, nuclear magnetic moments (NMagM)
  in nuclear magnetons)

  Atom         1           2           3           4           5           6           7
 IAtWgt=         238          16          16          35          35          40          40
 AtmWgt= 238.0508000  15.9949146  15.9949146  34.9688527  34.9688527  39.9623831  39.9623831
 NucSpn=           0           0           0           3           3           0           0
 AtZEff=  -0.0000000  -0.0000000  -0.0000000  -0.0000000  -0.0000000  -0.0000000  -0.0000000
 NQMom=    0.0000000   0.0000000   0.0000000  -8.1650000  -8.1650000   0.0000000   0.0000000
 NMagM=    0.0000000   0.0000000   0.0000000   0.8218740   0.8218740   0.0000000   0.0000000
 AtZNuc=  92.0000000   8.0000000   8.0000000  17.0000000  17.0000000  18.0000000  18.0000000
 Leave Link  101 at Sun Jan 22 18:31:58 2023, MaxMem=  1048576000 cpu:               0.7 elap:               0.2
 (Enter /home/pcmt/gaussian/g16.C.01/g16/l103.exe)

 GradGradGradGradGradGradGradGradGradGradGradGradGradGradGradGradGradGrad
 Berny optimization.
 Initialization pass.
                           ----------------------------
                           !    Initial Parameters    !
                           ! (Angstroms and Degrees)  !
 --------------------------                            --------------------------
 ! Name  Definition              Value          Derivative Info.                !
 --------------------------------------------------------------------------------
 ! R1    R(1,2)                  1.775          estimate D2E/DX2                !
 ! R2    R(1,3)                  1.775          estimate D2E/DX2                !
 ! R3    R(1,4)                  2.5429         estimate D2E/DX2                !
 ! R4    R(1,5)                  2.5429         estimate D2E/DX2                !
 ! R5    R(1,6)                  2.9633         estimate D2E/DX2                !
 ! R6    R(1,7)                  2.9633         estimate D2E/DX2                !
 ! R7    R(4,7)                  2.9394         estimate D2E/DX2                !
 ! R8    R(5,6)                  2.9394         estimate D2E/DX2                !
 ! A1    A(2,1,4)               89.1197         estimate D2E/DX2                !
 ! A2    A(2,1,5)               89.1197         estimate D2E/DX2                !
 ! A3    A(2,1,6)               90.7339         estimate D2E/DX2                !
 ! A4    A(2,1,7)               90.7339         estimate D2E/DX2                !
 ! A5    A(3,1,4)               89.1197         estimate D2E/DX2                !
 ! A6    A(3,1,5)               89.1197         estimate D2E/DX2                !
 ! A7    A(3,1,6)               90.7339         estimate D2E/DX2                !
 ! A8    A(3,1,7)               90.7339         estimate D2E/DX2                !
 ! A9    A(4,1,5)              109.5211         estimate D2E/DX2                !
 ! A10   A(6,1,7)              122.4887         estimate D2E/DX2                !
 ! A11   L(2,1,3,4,-1)         178.2395         estimate D2E/DX2                !
 ! A12   L(4,1,6,3,-1)         179.8537         estimate D2E/DX2                !
 ! A13   L(5,1,7,3,-1)         179.8537         estimate D2E/DX2                !
 ! A14   L(2,1,3,4,-2)         177.5075         estimate D2E/DX2                !
 ! A15   L(4,1,6,3,-2)         173.5172         estimate D2E/DX2                !
 ! A16   L(5,1,7,3,-2)         186.4828         estimate D2E/DX2                !
 ! D1    D(2,1,5,4)            -88.7538         estimate D2E/DX2                !
 ! D2    D(2,1,6,4)            -88.6624         estimate D2E/DX2                !
 ! D3    D(2,1,7,4)             88.6624         estimate D2E/DX2                !
 ! D4    D(2,1,6,5)            -88.6624         estimate D2E/DX2                !
 ! D5    D(2,1,7,5)             88.6624         estimate D2E/DX2                !
 ! D6    D(2,1,7,6)            -91.3376         estimate D2E/DX2                !
 ! D7    D(3,1,5,4)             88.7538         estimate D2E/DX2                !
 ! D8    D(3,1,6,4)             88.6624         estimate D2E/DX2                !
 ! D9    D(3,1,7,4)            -88.6624         estimate D2E/DX2                !
 ! D10   D(3,1,6,5)             88.6624         estimate D2E/DX2                !
 ! D11   D(3,1,7,5)            -88.6624         estimate D2E/DX2                !
 ! D12   D(3,1,7,6)             91.3376         estimate D2E/DX2                !
 --------------------------------------------------------------------------------
 Trust Radius=3.00D-01 FncErr=1.00D-07 GrdErr=1.00D-06 EigMax=2.50D+02 EigMin=1.00D-04
 Number of steps in this run=     46 maximum allowed number of steps=    100.
 GradGradGradGradGradGradGradGradGradGradGradGradGradGradGradGradGradGrad

 Leave Link  103 at Sun Jan 22 18:31:58 2023, MaxMem=  1048576000 cpu:               0.0 elap:               0.0
 (Enter /home/pcmt/gaussian/g16.C.01/g16/l202.exe)
                          Input orientation:                          
 ---------------------------------------------------------------------
 Center     Atomic      Atomic             Coordinates (Angstroms)
 Number     Number       Type             X           Y           Z
 ---------------------------------------------------------------------
      1         92           0        0.000000   -0.004320    0.000000
      2          8           0       -1.774340   -0.051580    0.000000
      3          8           0        1.774340   -0.051580    0.000000
      4         17           0        0.000000   -1.471540    2.076880
      5         17           0        0.000000   -1.471540   -2.076880
      6         18           0        0.000000    1.421270   -2.597900
      7         18           0        0.000000    1.421270    2.597900
 ---------------------------------------------------------------------
                    Distance matrix (angstroms):
                    1          2          3          4          5
     1  U    0.000000
     2  O    1.774969   0.000000
     3  O    1.774969   3.548680   0.000000
     4  Cl   2.542866   3.078636   3.078636   0.000000
     5  Cl   2.542866   3.078636   3.078636   4.153760   0.000000
     6  Ar   2.963341   3.473709   3.473709   5.497446   2.939356
     7  Ar   2.963341   3.473709   3.473709   2.939356   5.497446
                    6          7
     6  Ar   0.000000
     7  Ar   5.195800   0.000000
 Stoichiometry    Ar2Cl2O2U
 Framework group  C2V[C2(U),SGV(Ar2Cl2),SGV'(O2)]
 Deg. of freedom     6
 Full point group                 C2V     NOp   4
 Largest Abelian subgroup         C2V     NOp   4
 Largest concise Abelian subgroup C2V     NOp   4
                         Standard orientation:                         
 ---------------------------------------------------------------------
 Center     Atomic      Atomic             Coordinates (Angstroms)
 Number     Number       Type             X           Y           Z
 ---------------------------------------------------------------------
      1         92           0       -0.000000   -0.000000    0.003818
      2          8           0       -1.774340    0.000000    0.051078
      3          8           0        1.774340   -0.000000    0.051078
      4         17           0        0.000000    2.076880    1.471038
      5         17           0       -0.000000   -2.076880    1.471038
      6         18           0        0.000000   -2.597900   -1.421772
      7         18           0        0.000000    2.597900   -1.421772
 ---------------------------------------------------------------------
 Rotational constants (GHZ):           1.2220681           0.5366077           0.4379666
 Leave Link  202 at Sun Jan 22 18:31:58 2023, MaxMem=  1048576000 cpu:               0.1 elap:               0.0
 (Enter /home/pcmt/gaussian/g16.C.01/g16/l301.exe)
 General basis read from cards:  (5D, 7F)
 Centers:       1
 S 3 1.00
     Exponent=  1.2098082000D+04 Coefficients=  1.0200000000D-04
     Exponent=  1.8337573000D+03 Coefficients=  7.7100000000D-04
     Exponent=  3.5168632000D+02 Coefficients=  2.9690000000D-03
 S 1 1.00
     Exponent=  1.0431426000D+02 Coefficients=  1.0000000000D+00
 S 3 1.00
     Exponent=  6.0905822000D+01 Coefficients=  4.9868000000D-02
     Exponent=  3.5515086000D+01 Coefficients= -2.4531300000D-01
     Exponent=  2.0891227000D+01 Coefficients=  7.2384700000D-01
 S 1 1.00
     Exponent=  1.0184647000D+01 Coefficients=  1.0000000000D+00
 S 1 1.00
     Exponent=  2.8518510000D+00 Coefficients=  1.0000000000D+00
 S 1 1.00
     Exponent=  1.5316160000D+00 Coefficients=  1.0000000000D+00
 S 1 1.00
     Exponent=  6.1620300000D-01 Coefficients=  1.0000000000D+00
 S 1 1.00
     Exponent=  2.7949400000D-01 Coefficients=  1.0000000000D+00
 S 1 1.00
     Exponent=  5.7253000000D-02 Coefficients=  1.0000000000D+00
 S 1 1.00
     Exponent=  2.3443000000D-02 Coefficients=  1.0000000000D+00
 P 5 1.00
     Exponent=  2.9068451000D+03 Coefficients=  8.8000000000D-05
     Exponent=  6.9440053000D+02 Coefficients=  7.3200000000D-04
     Exponent=  2.2463479000D+02 Coefficients=  3.4140000000D-03
     Exponent=  8.0520526000D+01 Coefficients=  1.1099000000D-02
     Exponent=  2.4080211000D+01 Coefficients=  2.5216000000D-02
 P 1 1.00
     Exponent=  1.4077580000D+01 Coefficients=  1.0000000000D+00
 P 1 1.00
     Exponent=  8.2658460000D+00 Coefficients=  1.0000000000D+00
 P 1 1.00
     Exponent=  3.4236070000D+00 Coefficients=  1.0000000000D+00
 P 1 1.00
     Exponent=  1.7084170000D+00 Coefficients=  1.0000000000D+00
 P 1 1.00
     Exponent=  6.5504600000D-01 Coefficients=  1.0000000000D+00
 P 1 1.00
     Exponent=  2.8375500000D-01 Coefficients=  1.0000000000D+00
 P 1 1.00
     Exponent=  1.0181400000D-01 Coefficients=  1.0000000000D+00
 P 1 1.00
     Exponent=  3.0535000000D-02 Coefficients=  1.0000000000D+00
 D 6 1.00
     Exponent=  4.4901953000D+02 Coefficients=  5.0000000000D-05
     Exponent=  1.5635695000D+02 Coefficients=  3.2200000000D-04
     Exponent=  6.0242439000D+01 Coefficients=  1.7770000000D-03
     Exponent=  1.7772317000D+01 Coefficients=  2.5385000000D-02
     Exponent=  1.0454304000D+01 Coefficients= -8.9378000000D-02
     Exponent=  3.5834330000D+00 Coefficients=  4.4479900000D-01
 D 1 1.00
     Exponent=  1.7637240000D+00 Coefficients=  1.0000000000D+00
 D 1 1.00
     Exponent=  7.8403000000D-01 Coefficients=  1.0000000000D+00
 D 1 1.00
     Exponent=  2.7612700000D-01 Coefficients=  1.0000000000D+00
 D 1 1.00
     Exponent=  8.6980000000D-02 Coefficients=  1.0000000000D+00
 F 5 1.00
     Exponent=  1.0528793000D+02 Coefficients=  2.2800000000D-04
     Exponent=  3.5101181000D+01 Coefficients=  2.3080000000D-03
     Exponent=  1.4564138000D+01 Coefficients=  9.2530000000D-03
     Exponent=  4.6518850000D+00 Coefficients=  1.3694900000D-01
     Exponent=  2.2559730000D+00 Coefficients=  3.3980100000D-01
 F 1 1.00
     Exponent=  1.0102740000D+00 Coefficients=  1.0000000000D+00
 F 1 1.00
     Exponent=  4.1168000000D-01 Coefficients=  1.0000000000D+00
 F 1 1.00
     Exponent=  1.4412000000D-01 Coefficients=  1.0000000000D+00
 G 4 1.00
     Exponent=  1.0528793000D+02 Coefficients=  1.3700000000D-04
     Exponent=  3.5101181000D+01 Coefficients=  1.8310000000D-03
     Exponent=  1.4564138000D+01 Coefficients=  1.9940000000D-02
     Exponent=  4.6518850000D+00 Coefficients=  1.1075800000D-01
 G 1 1.00
     Exponent=  2.2559730000D+00 Coefficients=  1.0000000000D+00
 G 1 1.00
     Exponent=  1.0102740000D+00 Coefficients=  1.0000000000D+00
 ****
 Centers:       6      7
 S 3 1.00
     Exponent=  1.7466965500D+02 Coefficients=  2.5870000000D-03
     Exponent=  1.2695768000D+01 Coefficients=  6.2313000000D-02
     Exponent=  2.9178340000D+00 Coefficients= -1.0421580000D+00
 S 1 1.00
     Exponent=  6.7084000000D-01 Coefficients=  1.0000000000D+00
 S 1 1.00
     Exponent=  2.9911200000D-01 Coefficients=  1.0000000000D+00
 S 1 1.00
     Exponent=  1.3140200000D-01 Coefficients=  1.0000000000D+00
 P 3 1.00
     Exponent=  1.9887221000D+01 Coefficients=  2.3346000000D-02
     Exponent=  3.7761720000D+00 Coefficients= -2.2462100000D-01
     Exponent=  1.2115160000D+00 Coefficients=  1.1375960000D+00
 P 1 1.00
     Exponent=  5.3849900000D-01 Coefficients=  1.0000000000D+00
 P 1 1.00
     Exponent=  2.2957500000D-01 Coefficients=  1.0000000000D+00
 P 1 1.00
     Exponent=  9.5103000000D-02 Coefficients=  1.0000000000D+00
 D 1 1.00
     Exponent=  1.4509000000D+00 Coefficients=  1.0000000000D+00
 D 1 1.00
     Exponent=  4.3850000000D-01 Coefficients=  1.0000000000D+00
 D 1 1.00
     Exponent=  1.3250000000D-01 Coefficients=  1.0000000000D+00
 F 1 1.00
     Exponent=  9.3050000000D-01 Coefficients=  1.0000000000D+00
 ****
 Centers:       4      5
 Def2TZVP
 ****
 Centers:       2      3
 Def2TZVP
 ****
 ======================================================================================================
                                       Pseudopotential Parameters
 ======================================================================================================
  Center     Atomic      Valence      Angular      Power
  Number     Number     Electrons     Momentum     of R      Exponent        Coefficient   SO-Coeffient
 ======================================================================================================
    1         92           32
                                      H and up 
                                                     2        1.0000000        0.00000000    0.00000000
                                      S - H
                                                     2       16.4140387      536.51662778    0.00000000
                                      P - H
                                                     2        9.0605561      169.54492465    0.00000000
                                      D - H
                                                     2        8.8318320      142.61559837    0.00000000
                                      F - H
                                                     2        7.0185163       60.39307602    0.00000000
                                      G - H
                                                     2       12.8040884      -60.12998958    0.00000000
    2          8
                                   No pseudopotential on this center.
    3          8
                                   No pseudopotential on this center.
    4         17
                                   No pseudopotential on this center.
    5         17
                                   No pseudopotential on this center.
    6         18            8
                                      G and up 
                                                     2        1.0000000        0.00000000    0.00000000
                                      S - G
                                                     2       10.2617210       68.66778801    0.00000000
                                                     2        3.9527250       24.04276629    0.00000000
                                      P - G
                                                     2        5.3927140       27.73076331    0.00000000
                                                     2        2.6999670        4.04545904    0.00000000
                                      D - G
                                                     2        8.0862350       -8.13747696    0.00000000
                                                     2        4.0166320       -1.66452808    0.00000000
                                      F - G
                                                     2        5.2084590       -3.40009845    0.00000000
    7         18            8
                                      G and up 
                                                     2        1.0000000        0.00000000    0.00000000
                                      S - G
                                                     2       10.2617210       68.66778801    0.00000000
                                                     2        3.9527250       24.04276629    0.00000000
                                      P - G
                                                     2        5.3927140       27.73076331    0.00000000
                                                     2        2.6999670        4.04545904    0.00000000
                                      D - G
                                                     2        8.0862350       -8.13747696    0.00000000
                                                     2        4.0166320       -1.66452808    0.00000000
                                      F - G
                                                     2        5.2084590       -3.40009845    0.00000000
 ======================================================================================================
 Ernie: Thresh=  0.10000D-02 Tol=  0.10000D-05 Strict=F.
 AO basis set in the form of general basis input (Overlap normalization):
      1 0
 S   3 1.00       0.000000000000
      0.1209808200D+05  0.2884168448D-01
      0.1833757300D+04  0.2180092033D+00
      0.3516863200D+03  0.8395192276D+00
 S   3 1.00       0.000000000000
      0.6090582200D+02  0.9338504807D-01
      0.3551508600D+02 -0.4593840999D+00
      0.2089122700D+02  0.1355508280D+01
 S   1 1.00       0.000000000000
      0.1043142600D+03  0.1000000000D+01
 S   1 1.00       0.000000000000
      0.1018464700D+02  0.1000000000D+01
 S   1 1.00       0.000000000000
      0.2851851000D+01  0.1000000000D+01
 S   1 1.00       0.000000000000
      0.1531616000D+01  0.1000000000D+01
 S   1 1.00       0.000000000000
      0.6162030000D+00  0.1000000000D+01
 S   1 1.00       0.000000000000
      0.2794940000D+00  0.1000000000D+01
 S   1 1.00       0.000000000000
      0.5725300000D-01  0.1000000000D+01
 S   1 1.00       0.000000000000
      0.2344300000D-01  0.1000000000D+01
 P   5 1.00       0.000000000000
      0.2906845100D+04  0.2490724940D-02
      0.6944005300D+03  0.2071830291D-01
      0.2246347900D+03  0.9662880620D-01
      0.8052052600D+02  0.3141426831D+00
      0.2408021100D+02  0.7137059101D+00
 P   1 1.00       0.000000000000
      0.1407758000D+02  0.1000000000D+01
 P   1 1.00       0.000000000000
      0.8265846000D+01  0.1000000000D+01
 P   1 1.00       0.000000000000
      0.3423607000D+01  0.1000000000D+01
 P   1 1.00       0.000000000000
      0.1708417000D+01  0.1000000000D+01
 P   1 1.00       0.000000000000
      0.6550460000D+00  0.1000000000D+01
 P   1 1.00       0.000000000000
      0.2837550000D+00  0.1000000000D+01
 P   1 1.00       0.000000000000
      0.1018140000D+00  0.1000000000D+01
 P   1 1.00       0.000000000000
      0.3053500000D-01  0.1000000000D+01
 D   6 1.00       0.000000000000
      0.4490195300D+03  0.1244413406D-03
      0.1563569500D+03  0.8014022332D-03
      0.6024243900D+02  0.4422645243D-02
      0.1777231700D+02  0.6317886860D-01
      0.1045430400D+02 -0.2224463627D+00
      0.3583433000D+01  0.1107027677D+01
 D   1 1.00       0.000000000000
      0.1763724000D+01  0.1000000000D+01
 D   1 1.00       0.000000000000
      0.7840300000D+00  0.1000000000D+01
 D   1 1.00       0.000000000000
      0.2761270000D+00  0.1000000000D+01
 D   1 1.00       0.000000000000
      0.8698000000D-01  0.1000000000D+01
 F   5 1.00       0.000000000000
      0.1052879300D+03  0.5015876177D-03
      0.3510118100D+02  0.5077474656D-02
      0.1456413800D+02  0.2035609748D-01
      0.4651885000D+01  0.3012803625D+00
      0.2255973000D+01  0.7475437460D+00
 F   1 1.00       0.000000000000
      0.1010274000D+01  0.1000000000D+01
 F   1 1.00       0.000000000000
      0.4116800000D+00  0.1000000000D+01
 F   1 1.00       0.000000000000
      0.1441200000D+00  0.1000000000D+01
 G   4 1.00       0.000000000000
      0.1052879300D+03  0.1132460043D-02
      0.3510118100D+02  0.1513528715D-01
      0.1456413800D+02  0.1648266662D+00
      0.4651885000D+01  0.9155402153D+00
 G   1 1.00       0.000000000000
      0.2255973000D+01  0.1000000000D+01
 G   1 1.00       0.000000000000
      0.1010274000D+01  0.1000000000D+01
 ****
      2 0
 S   6 1.00       0.000000000000
      0.2703238263D+05  0.5722733521D-03
      0.4052387139D+04  0.4435323349D-02
      0.9223272271D+03  0.2302010771D-01
      0.2612407099D+03  0.9282249067D-01
      0.8535464135D+02  0.2937850001D+00
      0.3103503524D+02  0.6740160450D+00
 S   2 1.00       0.000000000000
      0.1226086073D+02  0.6383993703D+00
      0.4998707601D+01  0.3953458713D+00
 S   1 1.00       0.000000000000
      0.1170310816D+01  0.1000000000D+01
 S   1 1.00       0.000000000000
      0.4647474099D+00  0.1000000000D+01
 S   1 1.00       0.000000000000
      0.1850453636D+00  0.1000000000D+01
 P   4 1.00       0.000000000000
      0.6327495480D+02  0.1201833222D-01
      0.1462704938D+02  0.8300542179D-01
      0.4450122346D+01  0.3199174393D+00
      0.1527579965D+01  0.7071554292D+00
 P   1 1.00       0.000000000000
      0.5293511794D+00  0.1000000000D+01
 P   1 1.00       0.000000000000
      0.1747842127D+00  0.1000000000D+01
 D   1 1.00       0.000000000000
      0.2314000000D+01  0.1000000000D+01
 D   1 1.00       0.000000000000
      0.6450000000D+00  0.1000000000D+01
 F   1 1.00       0.000000000000
      0.1428000000D+01  0.1000000000D+01
 ****
      3 0
 S   6 1.00       0.000000000000
      0.2703238263D+05  0.5722733521D-03
      0.4052387139D+04  0.4435323349D-02
      0.9223272271D+03  0.2302010771D-01
      0.2612407099D+03  0.9282249067D-01
      0.8535464135D+02  0.2937850001D+00
      0.3103503524D+02  0.6740160450D+00
 S   2 1.00       0.000000000000
      0.1226086073D+02  0.6383993703D+00
      0.4998707601D+01  0.3953458713D+00
 S   1 1.00       0.000000000000
      0.1170310816D+01  0.1000000000D+01
 S   1 1.00       0.000000000000
      0.4647474099D+00  0.1000000000D+01
 S   1 1.00       0.000000000000
      0.1850453636D+00  0.1000000000D+01
 P   4 1.00       0.000000000000
      0.6327495480D+02  0.1201833222D-01
      0.1462704938D+02  0.8300542179D-01
      0.4450122346D+01  0.3199174393D+00
      0.1527579965D+01  0.7071554292D+00
 P   1 1.00       0.000000000000
      0.5293511794D+00  0.1000000000D+01
 P   1 1.00       0.000000000000
      0.1747842127D+00  0.1000000000D+01
 D   1 1.00       0.000000000000
      0.2314000000D+01  0.1000000000D+01
 D   1 1.00       0.000000000000
      0.6450000000D+00  0.1000000000D+01
 F   1 1.00       0.000000000000
      0.1428000000D+01  0.1000000000D+01
 ****
      4 0
 S   7 1.00       0.000000000000
      0.6950799094D+05  0.5145738965D-03
      0.1042615688D+05  0.3978134481D-02
      0.2373233406D+04  0.2045617867D-01
      0.6715642007D+03  0.8014810289D-01
      0.2184199979D+03  0.2345477032D+00
      0.7757224971D+02  0.4454336858D+00
      0.2888881528D+02  0.3546684250D+00
 S   3 1.00       0.000000000000
      0.1271052718D+03  0.1129368805D+00
      0.3933958296D+02  0.4837351421D+00
      0.7674067999D+01 -0.1229229739D+01
 S   2 1.00       0.000000000000
      0.3874562763D+01  0.6729682164D+00
      0.1838583257D+01  0.3495605141D+00
 S   1 1.00       0.000000000000
      0.5022905754D+00  0.1000000000D+01
 S   1 1.00       0.000000000000
      0.1796272342D+00  0.1000000000D+01
 P   5 1.00       0.000000000000
      0.6665042328D+03  0.3350250820D-02
      0.1576424169D+03  0.2676397041D-01
      0.5026252098D+02  0.1236268236D+00
      0.1853607811D+02  0.3584578792D+00
      0.7294053278D+01  0.6167729635D+00
 P   1 1.00       0.000000000000
      0.2943324899D+01  0.1000000000D+01
 P   1 1.00       0.000000000000
      0.1040497082D+01  0.1000000000D+01
 P   1 1.00       0.000000000000
      0.3845641508D+00  0.1000000000D+01
 P   1 1.00       0.000000000000
      0.1306964273D+00  0.1000000000D+01
 D   2 1.00       0.000000000000
      0.4610000000D+01  0.1826583505D+00
      0.1011000000D+01  0.9132917523D+00
 D   1 1.00       0.000000000000
      0.3390000000D+00  0.1000000000D+01
 F   1 1.00       0.000000000000
      0.7060000000D+00  0.1000000000D+01
 ****
      5 0
 S   7 1.00       0.000000000000
      0.6950799094D+05  0.5145738965D-03
      0.1042615688D+05  0.3978134481D-02
      0.2373233406D+04  0.2045617867D-01
      0.6715642007D+03  0.8014810289D-01
      0.2184199979D+03  0.2345477032D+00
      0.7757224971D+02  0.4454336858D+00
      0.2888881528D+02  0.3546684250D+00
 S   3 1.00       0.000000000000
      0.1271052718D+03  0.1129368805D+00
      0.3933958296D+02  0.4837351421D+00
      0.7674067999D+01 -0.1229229739D+01
 S   2 1.00       0.000000000000
      0.3874562763D+01  0.6729682164D+00
      0.1838583257D+01  0.3495605141D+00
 S   1 1.00       0.000000000000
      0.5022905754D+00  0.1000000000D+01
 S   1 1.00       0.000000000000
      0.1796272342D+00  0.1000000000D+01
 P   5 1.00       0.000000000000
      0.6665042328D+03  0.3350250820D-02
      0.1576424169D+03  0.2676397041D-01
      0.5026252098D+02  0.1236268236D+00
      0.1853607811D+02  0.3584578792D+00
      0.7294053278D+01  0.6167729635D+00
 P   1 1.00       0.000000000000
      0.2943324899D+01  0.1000000000D+01
 P   1 1.00       0.000000000000
      0.1040497082D+01  0.1000000000D+01
 P   1 1.00       0.000000000000
      0.3845641508D+00  0.1000000000D+01
 P   1 1.00       0.000000000000
      0.1306964273D+00  0.1000000000D+01
 D   2 1.00       0.000000000000
      0.4610000000D+01  0.1826583505D+00
      0.1011000000D+01  0.9132917523D+00
 D   1 1.00       0.000000000000
      0.3390000000D+00  0.1000000000D+01
 F   1 1.00       0.000000000000
      0.7060000000D+00  0.1000000000D+01
 ****
      6 0
 S   3 1.00       0.000000000000
      0.1746696550D+03  0.2587000790D-02
      0.1269576800D+02  0.6231301902D-01
      0.2917834000D+01 -0.1042158318D+01
 S   1 1.00       0.000000000000
      0.6708400000D+00  0.1000000000D+01
 S   1 1.00       0.000000000000
      0.2991120000D+00  0.1000000000D+01
 S   1 1.00       0.000000000000
      0.1314020000D+00  0.1000000000D+01
 P   3 1.00       0.000000000000
      0.1988722100D+02  0.2334600819D-01
      0.3776172000D+01 -0.2246210788D+00
      0.1211516000D+01  0.1137596399D+01
 P   1 1.00       0.000000000000
      0.5384990000D+00  0.1000000000D+01
 P   1 1.00       0.000000000000
      0.2295750000D+00  0.1000000000D+01
 P   1 1.00       0.000000000000
      0.9510300000D-01  0.1000000000D+01
 D   1 1.00       0.000000000000
      0.1450900000D+01  0.1000000000D+01
 D   1 1.00       0.000000000000
      0.4385000000D+00  0.1000000000D+01
 D   1 1.00       0.000000000000
      0.1325000000D+00  0.1000000000D+01
 F   1 1.00       0.000000000000
      0.9305000000D+00  0.1000000000D+01
 ****
      7 0
 S   3 1.00       0.000000000000
      0.1746696550D+03  0.2587000790D-02
      0.1269576800D+02  0.6231301902D-01
      0.2917834000D+01 -0.1042158318D+01
 S   1 1.00       0.000000000000
      0.6708400000D+00  0.1000000000D+01
 S   1 1.00       0.000000000000
      0.2991120000D+00  0.1000000000D+01
 S   1 1.00       0.000000000000
      0.1314020000D+00  0.1000000000D+01
 P   3 1.00       0.000000000000
      0.1988722100D+02  0.2334600819D-01
      0.3776172000D+01 -0.2246210788D+00
      0.1211516000D+01  0.1137596399D+01
 P   1 1.00       0.000000000000
      0.5384990000D+00  0.1000000000D+01
 P   1 1.00       0.000000000000
      0.2295750000D+00  0.1000000000D+01
 P   1 1.00       0.000000000000
      0.9510300000D-01  0.1000000000D+01
 D   1 1.00       0.000000000000
      0.1450900000D+01  0.1000000000D+01
 D   1 1.00       0.000000000000
      0.4385000000D+00  0.1000000000D+01
 D   1 1.00       0.000000000000
      0.1325000000D+00  0.1000000000D+01
 F   1 1.00       0.000000000000
      0.9305000000D+00  0.1000000000D+01
 ****

 AO basis set (Overlap normalization):
 Atom U1       Shell     1 S   3     bf    1 -     1         -0.000000000000         -0.000000000000          0.007214931878
      0.1209808200D+05  0.2884168448D-01
      0.1833757300D+04  0.2180092033D+00
      0.3516863200D+03  0.8395192276D+00
 Atom U1       Shell     2 S   3     bf    2 -     2         -0.000000000000         -0.000000000000          0.007214931878
      0.6090582200D+02  0.9338504807D-01
      0.3551508600D+02 -0.4593840999D+00
      0.2089122700D+02  0.1355508280D+01
 Atom U1       Shell     3 S   1     bf    3 -     3         -0.000000000000         -0.000000000000          0.007214931878
      0.1043142600D+03  0.1000000000D+01
 Atom U1       Shell     4 S   1     bf    4 -     4         -0.000000000000         -0.000000000000          0.007214931878
      0.1018464700D+02  0.1000000000D+01
 Atom U1       Shell     5 S   1     bf    5 -     5         -0.000000000000         -0.000000000000          0.007214931878
      0.2851851000D+01  0.1000000000D+01
 Atom U1       Shell     6 S   1     bf    6 -     6         -0.000000000000         -0.000000000000          0.007214931878
      0.1531616000D+01  0.1000000000D+01
 Atom U1       Shell     7 S   1     bf    7 -     7         -0.000000000000         -0.000000000000          0.007214931878
      0.6162030000D+00  0.1000000000D+01
 Atom U1       Shell     8 S   1     bf    8 -     8         -0.000000000000         -0.000000000000          0.007214931878
      0.2794940000D+00  0.1000000000D+01
 Atom U1       Shell     9 S   1     bf    9 -     9         -0.000000000000         -0.000000000000          0.007214931878
      0.5725300000D-01  0.1000000000D+01
 Atom U1       Shell    10 S   1     bf   10 -    10         -0.000000000000         -0.000000000000          0.007214931878
      0.2344300000D-01  0.1000000000D+01
 Atom U1       Shell    11 P   5     bf   11 -    13         -0.000000000000         -0.000000000000          0.007214931878
      0.2906845100D+04  0.2490724940D-02
      0.6944005300D+03  0.2071830291D-01
      0.2246347900D+03  0.9662880620D-01
      0.8052052600D+02  0.3141426831D+00
      0.2408021100D+02  0.7137059101D+00
 Atom U1       Shell    12 P   1     bf   14 -    16         -0.000000000000         -0.000000000000          0.007214931878
      0.1407758000D+02  0.1000000000D+01
 Atom U1       Shell    13 P   1     bf   17 -    19         -0.000000000000         -0.000000000000          0.007214931878
      0.8265846000D+01  0.1000000000D+01
 Atom U1       Shell    14 P   1     bf   20 -    22         -0.000000000000         -0.000000000000          0.007214931878
      0.3423607000D+01  0.1000000000D+01
 Atom U1       Shell    15 P   1     bf   23 -    25         -0.000000000000         -0.000000000000          0.007214931878
      0.1708417000D+01  0.1000000000D+01
 Atom U1       Shell    16 P   1     bf   26 -    28         -0.000000000000         -0.000000000000          0.007214931878
      0.6550460000D+00  0.1000000000D+01
 Atom U1       Shell    17 P   1     bf   29 -    31         -0.000000000000         -0.000000000000          0.007214931878
      0.2837550000D+00  0.1000000000D+01
 Atom U1       Shell    18 P   1     bf   32 -    34         -0.000000000000         -0.000000000000          0.007214931878
      0.1018140000D+00  0.1000000000D+01
 Atom U1       Shell    19 P   1     bf   35 -    37         -0.000000000000         -0.000000000000          0.007214931878
      0.3053500000D-01  0.1000000000D+01
 Atom U1       Shell    20 D   6     bf   38 -    42         -0.000000000000         -0.000000000000          0.007214931878
      0.4490195300D+03  0.1244413406D-03
      0.1563569500D+03  0.8014022332D-03
      0.6024243900D+02  0.4422645243D-02
      0.1777231700D+02  0.6317886860D-01
      0.1045430400D+02 -0.2224463627D+00
      0.3583433000D+01  0.1107027677D+01
 Atom U1       Shell    21 D   1     bf   43 -    47         -0.000000000000         -0.000000000000          0.007214931878
      0.1763724000D+01  0.1000000000D+01
 Atom U1       Shell    22 D   1     bf   48 -    52         -0.000000000000         -0.000000000000          0.007214931878
      0.7840300000D+00  0.1000000000D+01
 Atom U1       Shell    23 D   1     bf   53 -    57         -0.000000000000         -0.000000000000          0.007214931878
      0.2761270000D+00  0.1000000000D+01
 Atom U1       Shell    24 D   1     bf   58 -    62         -0.000000000000         -0.000000000000          0.007214931878
      0.8698000000D-01  0.1000000000D+01
 Atom U1       Shell    25 F   5     bf   63 -    69         -0.000000000000         -0.000000000000          0.007214931878
      0.1052879300D+03  0.5015876177D-03
      0.3510118100D+02  0.5077474656D-02
      0.1456413800D+02  0.2035609748D-01
      0.4651885000D+01  0.3012803625D+00
      0.2255973000D+01  0.7475437460D+00
 Atom U1       Shell    26 F   1     bf   70 -    76         -0.000000000000         -0.000000000000          0.007214931878
      0.1010274000D+01  0.1000000000D+01
 Atom U1       Shell    27 F   1     bf   77 -    83         -0.000000000000         -0.000000000000          0.007214931878
      0.4116800000D+00  0.1000000000D+01
 Atom U1       Shell    28 F   1     bf   84 -    90         -0.000000000000         -0.000000000000          0.007214931878
      0.1441200000D+00  0.1000000000D+01
 Atom U1       Shell    29 G   4     bf   91 -    99         -0.000000000000         -0.000000000000          0.007214931878
      0.1052879300D+03  0.1132460043D-02
      0.3510118100D+02  0.1513528715D-01
      0.1456413800D+02  0.1648266662D+00
      0.4651885000D+01  0.9155402153D+00
 Atom U1       Shell    30 G   1     bf  100 -   108         -0.000000000000         -0.000000000000          0.007214931878
      0.2255973000D+01  0.1000000000D+01
 Atom U1       Shell    31 G   1     bf  109 -   117         -0.000000000000         -0.000000000000          0.007214931878
      0.1010274000D+01  0.1000000000D+01
 Atom O2       Shell    32 S   6     bf  118 -   118         -3.353016651861          0.000000000000          0.096523388525
      0.2703238263D+05  0.5722733521D-03
      0.4052387139D+04  0.4435323349D-02
      0.9223272271D+03  0.2302010771D-01
      0.2612407099D+03  0.9282249067D-01
      0.8535464135D+02  0.2937850001D+00
      0.3103503524D+02  0.6740160450D+00
 Atom O2       Shell    33 S   2     bf  119 -   119         -3.353016651861          0.000000000000          0.096523388525
      0.1226086073D+02  0.6383993703D+00
      0.4998707601D+01  0.3953458713D+00
 Atom O2       Shell    34 S   1     bf  120 -   120         -3.353016651861          0.000000000000          0.096523388525
      0.1170310816D+01  0.1000000000D+01
 Atom O2       Shell    35 S   1     bf  121 -   121         -3.353016651861          0.000000000000          0.096523388525
      0.4647474099D+00  0.1000000000D+01
 Atom O2       Shell    36 S   1     bf  122 -   122         -3.353016651861          0.000000000000          0.096523388525
      0.1850453636D+00  0.1000000000D+01
 Atom O2       Shell    37 P   4     bf  123 -   125         -3.353016651861          0.000000000000          0.096523388525
      0.6327495480D+02  0.1201833222D-01
      0.1462704938D+02  0.8300542179D-01
      0.4450122346D+01  0.3199174393D+00
      0.1527579965D+01  0.7071554292D+00
 Atom O2       Shell    38 P   1     bf  126 -   128         -3.353016651861          0.000000000000          0.096523388525
      0.5293511794D+00  0.1000000000D+01
 Atom O2       Shell    39 P   1     bf  129 -   131         -3.353016651861          0.000000000000          0.096523388525
      0.1747842127D+00  0.1000000000D+01
 Atom O2       Shell    40 D   1     bf  132 -   136         -3.353016651861          0.000000000000          0.096523388525
      0.2314000000D+01  0.1000000000D+01
 Atom O2       Shell    41 D   1     bf  137 -   141         -3.353016651861          0.000000000000          0.096523388525
      0.6450000000D+00  0.1000000000D+01
 Atom O2       Shell    42 F   1     bf  142 -   148         -3.353016651861          0.000000000000          0.096523388525
      0.1428000000D+01  0.1000000000D+01
 Atom O3       Shell    43 S   6     bf  149 -   149          3.353016651861         -0.000000000000          0.096523388525
      0.2703238263D+05  0.5722733521D-03
      0.4052387139D+04  0.4435323349D-02
      0.9223272271D+03  0.2302010771D-01
      0.2612407099D+03  0.9282249067D-01
      0.8535464135D+02  0.2937850001D+00
      0.3103503524D+02  0.6740160450D+00
 Atom O3       Shell    44 S   2     bf  150 -   150          3.353016651861         -0.000000000000          0.096523388525
      0.1226086073D+02  0.6383993703D+00
      0.4998707601D+01  0.3953458713D+00
 Atom O3       Shell    45 S   1     bf  151 -   151          3.353016651861         -0.000000000000          0.096523388525
      0.1170310816D+01  0.1000000000D+01
 Atom O3       Shell    46 S   1     bf  152 -   152          3.353016651861         -0.000000000000          0.096523388525
      0.4647474099D+00  0.1000000000D+01
 Atom O3       Shell    47 S   1     bf  153 -   153          3.353016651861         -0.000000000000          0.096523388525
      0.1850453636D+00  0.1000000000D+01
 Atom O3       Shell    48 P   4     bf  154 -   156          3.353016651861         -0.000000000000          0.096523388525
      0.6327495480D+02  0.1201833222D-01
      0.1462704938D+02  0.8300542179D-01
      0.4450122346D+01  0.3199174393D+00
      0.1527579965D+01  0.7071554292D+00
 Atom O3       Shell    49 P   1     bf  157 -   159          3.353016651861         -0.000000000000          0.096523388525
      0.5293511794D+00  0.1000000000D+01
 Atom O3       Shell    50 P   1     bf  160 -   162          3.353016651861         -0.000000000000          0.096523388525
      0.1747842127D+00  0.1000000000D+01
 Atom O3       Shell    51 D   1     bf  163 -   167          3.353016651861         -0.000000000000          0.096523388525
      0.2314000000D+01  0.1000000000D+01
 Atom O3       Shell    52 D   1     bf  168 -   172          3.353016651861         -0.000000000000          0.096523388525
      0.6450000000D+00  0.1000000000D+01
 Atom O3       Shell    53 F   1     bf  173 -   179          3.353016651861         -0.000000000000          0.096523388525
      0.1428000000D+01  0.1000000000D+01
 Atom Cl4      Shell    54 S   7     bf  180 -   180         -0.000000000000          3.924734393587          2.779858896362
      0.6950799094D+05  0.5145738965D-03
      0.1042615688D+05  0.3978134481D-02
      0.2373233406D+04  0.2045617867D-01
      0.6715642007D+03  0.8014810289D-01
      0.2184199979D+03  0.2345477032D+00
      0.7757224971D+02  0.4454336858D+00
      0.2888881528D+02  0.3546684250D+00
 Atom Cl4      Shell    55 S   3     bf  181 -   181         -0.000000000000          3.924734393587          2.779858896362
      0.1271052718D+03  0.1129368805D+00
      0.3933958296D+02  0.4837351421D+00
      0.7674067999D+01 -0.1229229739D+01
 Atom Cl4      Shell    56 S   2     bf  182 -   182         -0.000000000000          3.924734393587          2.779858896362
      0.3874562763D+01  0.6729682164D+00
      0.1838583257D+01  0.3495605141D+00
 Atom Cl4      Shell    57 S   1     bf  183 -   183         -0.000000000000          3.924734393587          2.779858896362
      0.5022905754D+00  0.1000000000D+01
 Atom Cl4      Shell    58 S   1     bf  184 -   184         -0.000000000000          3.924734393587          2.779858896362
      0.1796272342D+00  0.1000000000D+01
 Atom Cl4      Shell    59 P   5     bf  185 -   187         -0.000000000000          3.924734393587          2.779858896362
      0.6665042328D+03  0.3350250820D-02
      0.1576424169D+03  0.2676397041D-01
      0.5026252098D+02  0.1236268236D+00
      0.1853607811D+02  0.3584578792D+00
      0.7294053278D+01  0.6167729635D+00
 Atom Cl4      Shell    60 P   1     bf  188 -   190         -0.000000000000          3.924734393587          2.779858896362
      0.2943324899D+01  0.1000000000D+01
 Atom Cl4      Shell    61 P   1     bf  191 -   193         -0.000000000000          3.924734393587          2.779858896362
      0.1040497082D+01  0.1000000000D+01
 Atom Cl4      Shell    62 P   1     bf  194 -   196         -0.000000000000          3.924734393587          2.779858896362
      0.3845641508D+00  0.1000000000D+01
 Atom Cl4      Shell    63 P   1     bf  197 -   199         -0.000000000000          3.924734393587          2.779858896362
      0.1306964273D+00  0.1000000000D+01
 Atom Cl4      Shell    64 D   2     bf  200 -   204         -0.000000000000          3.924734393587          2.779858896362
      0.4610000000D+01  0.1826583505D+00
      0.1011000000D+01  0.9132917523D+00
 Atom Cl4      Shell    65 D   1     bf  205 -   209         -0.000000000000          3.924734393587          2.779858896362
      0.3390000000D+00  0.1000000000D+01
 Atom Cl4      Shell    66 F   1     bf  210 -   216         -0.000000000000          3.924734393587          2.779858896362
      0.7060000000D+00  0.1000000000D+01
 Atom Cl5      Shell    67 S   7     bf  217 -   217         -0.000000000000         -3.924734393587          2.779858896362
      0.6950799094D+05  0.5145738965D-03
      0.1042615688D+05  0.3978134481D-02
      0.2373233406D+04  0.2045617867D-01
      0.6715642007D+03  0.8014810289D-01
      0.2184199979D+03  0.2345477032D+00
      0.7757224971D+02  0.4454336858D+00
      0.2888881528D+02  0.3546684250D+00
 Atom Cl5      Shell    68 S   3     bf  218 -   218         -0.000000000000         -3.924734393587          2.779858896362
      0.1271052718D+03  0.1129368805D+00
      0.3933958296D+02  0.4837351421D+00
      0.7674067999D+01 -0.1229229739D+01
 Atom Cl5      Shell    69 S   2     bf  219 -   219         -0.000000000000         -3.924734393587          2.779858896362
      0.3874562763D+01  0.6729682164D+00
      0.1838583257D+01  0.3495605141D+00
 Atom Cl5      Shell    70 S   1     bf  220 -   220         -0.000000000000         -3.924734393587          2.779858896362
      0.5022905754D+00  0.1000000000D+01
 Atom Cl5      Shell    71 S   1     bf  221 -   221         -0.000000000000         -3.924734393587          2.779858896362
      0.1796272342D+00  0.1000000000D+01
 Atom Cl5      Shell    72 P   5     bf  222 -   224         -0.000000000000         -3.924734393587          2.779858896362
      0.6665042328D+03  0.3350250820D-02
      0.1576424169D+03  0.2676397041D-01
      0.5026252098D+02  0.1236268236D+00
      0.1853607811D+02  0.3584578792D+00
      0.7294053278D+01  0.6167729635D+00
 Atom Cl5      Shell    73 P   1     bf  225 -   227         -0.000000000000         -3.924734393587          2.779858896362
      0.2943324899D+01  0.1000000000D+01
 Atom Cl5      Shell    74 P   1     bf  228 -   230         -0.000000000000         -3.924734393587          2.779858896362
      0.1040497082D+01  0.1000000000D+01
 Atom Cl5      Shell    75 P   1     bf  231 -   233         -0.000000000000         -3.924734393587          2.779858896362
      0.3845641508D+00  0.1000000000D+01
 Atom Cl5      Shell    76 P   1     bf  234 -   236         -0.000000000000         -3.924734393587          2.779858896362
      0.1306964273D+00  0.1000000000D+01
 Atom Cl5      Shell    77 D   2     bf  237 -   241         -0.000000000000         -3.924734393587          2.779858896362
      0.4610000000D+01  0.1826583505D+00
      0.1011000000D+01  0.9132917523D+00
 Atom Cl5      Shell    78 D   1     bf  242 -   246         -0.000000000000         -3.924734393587          2.779858896362
      0.3390000000D+00  0.1000000000D+01
 Atom Cl5      Shell    79 F   1     bf  247 -   253         -0.000000000000         -3.924734393587          2.779858896362
      0.7060000000D+00  0.1000000000D+01
 Atom Ar6      Shell    80 S   3     bf  254 -   254          0.000000000000         -4.909319499008         -2.686759734041
      0.1746696550D+03  0.2587000790D-02
      0.1269576800D+02  0.6231301902D-01
      0.2917834000D+01 -0.1042158318D+01
 Atom Ar6      Shell    81 S   1     bf  255 -   255          0.000000000000         -4.909319499008         -2.686759734041
      0.6708400000D+00  0.1000000000D+01
 Atom Ar6      Shell    82 S   1     bf  256 -   256          0.000000000000         -4.909319499008         -2.686759734041
      0.2991120000D+00  0.1000000000D+01
 Atom Ar6      Shell    83 S   1     bf  257 -   257          0.000000000000         -4.909319499008         -2.686759734041
      0.1314020000D+00  0.1000000000D+01
 Atom Ar6      Shell    84 P   3     bf  258 -   260          0.000000000000         -4.909319499008         -2.686759734041
      0.1988722100D+02  0.2334600819D-01
      0.3776172000D+01 -0.2246210788D+00
      0.1211516000D+01  0.1137596399D+01
 Atom Ar6      Shell    85 P   1     bf  261 -   263          0.000000000000         -4.909319499008         -2.686759734041
      0.5384990000D+00  0.1000000000D+01
 Atom Ar6      Shell    86 P   1     bf  264 -   266          0.000000000000         -4.909319499008         -2.686759734041
      0.2295750000D+00  0.1000000000D+01
 Atom Ar6      Shell    87 P   1     bf  267 -   269          0.000000000000         -4.909319499008         -2.686759734041
      0.9510300000D-01  0.1000000000D+01
 Atom Ar6      Shell    88 D   1     bf  270 -   274          0.000000000000         -4.909319499008         -2.686759734041
      0.1450900000D+01  0.1000000000D+01
 Atom Ar6      Shell    89 D   1     bf  275 -   279          0.000000000000         -4.909319499008         -2.686759734041
      0.4385000000D+00  0.1000000000D+01
 Atom Ar6      Shell    90 D   1     bf  280 -   284          0.000000000000         -4.909319499008         -2.686759734041
      0.1325000000D+00  0.1000000000D+01
 Atom Ar6      Shell    91 F   1     bf  285 -   291          0.000000000000         -4.909319499008         -2.686759734041
      0.9305000000D+00  0.1000000000D+01
 Atom Ar7      Shell    92 S   3     bf  292 -   292          0.000000000000          4.909319499008         -2.686759734041
      0.1746696550D+03  0.2587000790D-02
      0.1269576800D+02  0.6231301902D-01
      0.2917834000D+01 -0.1042158318D+01
 Atom Ar7      Shell    93 S   1     bf  293 -   293          0.000000000000          4.909319499008         -2.686759734041
      0.6708400000D+00  0.1000000000D+01
 Atom Ar7      Shell    94 S   1     bf  294 -   294          0.000000000000          4.909319499008         -2.686759734041
      0.2991120000D+00  0.1000000000D+01
 Atom Ar7      Shell    95 S   1     bf  295 -   295          0.000000000000          4.909319499008         -2.686759734041
      0.1314020000D+00  0.1000000000D+01
 Atom Ar7      Shell    96 P   3     bf  296 -   298          0.000000000000          4.909319499008         -2.686759734041
      0.1988722100D+02  0.2334600819D-01
      0.3776172000D+01 -0.2246210788D+00
      0.1211516000D+01  0.1137596399D+01
 Atom Ar7      Shell    97 P   1     bf  299 -   301          0.000000000000          4.909319499008         -2.686759734041
      0.5384990000D+00  0.1000000000D+01
 Atom Ar7      Shell    98 P   1     bf  302 -   304          0.000000000000          4.909319499008         -2.686759734041
      0.2295750000D+00  0.1000000000D+01
 Atom Ar7      Shell    99 P   1     bf  305 -   307          0.000000000000          4.909319499008         -2.686759734041
      0.9510300000D-01  0.1000000000D+01
 Atom Ar7      Shell   100 D   1     bf  308 -   312          0.000000000000          4.909319499008         -2.686759734041
      0.1450900000D+01  0.1000000000D+01
 Atom Ar7      Shell   101 D   1     bf  313 -   317          0.000000000000          4.909319499008         -2.686759734041
      0.4385000000D+00  0.1000000000D+01
 Atom Ar7      Shell   102 D   1     bf  318 -   322          0.000000000000          4.909319499008         -2.686759734041
      0.1325000000D+00  0.1000000000D+01
 Atom Ar7      Shell   103 F   1     bf  323 -   329          0.000000000000          4.909319499008         -2.686759734041
      0.9305000000D+00  0.1000000000D+01
 Effective core potential in the form of general ECP input:
      1 0
 U1-ECP   5 60
 H component
  1
  2        1.0000000        0.00000000    0.00000000
 S-H projection
  1
  2       16.4140387      536.51662778    0.00000000
 P-H projection
  1
  2        9.0605561      169.54492465    0.00000000
 D-H projection
  1
  2        8.8318320      142.61559837    0.00000000
 F-H projection
  1
  2        7.0185163       60.39307602    0.00000000
 G-H projection
  1
  2       12.8040884      -60.12998958    0.00000000
      6 0
 Ar6-ECP   4 10
 G component
  1
  2        1.0000000        0.00000000    0.00000000
 S-G projection
  2
  2       10.2617210       68.66778801    0.00000000
  2        3.9527250       24.04276629    0.00000000
 P-G projection
  2
  2        5.3927140       27.73076331    0.00000000
  2        2.6999670        4.04545904    0.00000000
 D-G projection
  2
  2        8.0862350       -8.13747696    0.00000000
  2        4.0166320       -1.66452808    0.00000000
 F-G projection
  1
  2        5.2084590       -3.40009845    0.00000000
      7 0
 Ar7-ECP   4 10
 G component
  1
  2        1.0000000        0.00000000    0.00000000
 S-G projection
  2
  2       10.2617210       68.66778801    0.00000000
  2        3.9527250       24.04276629    0.00000000
 P-G projection
  2
  2        5.3927140       27.73076331    0.00000000
  2        2.6999670        4.04545904    0.00000000
 D-G projection
  2
  2        8.0862350       -8.13747696    0.00000000
  2        4.0166320       -1.66452808    0.00000000
 F-G projection
  1
  2        5.2084590       -3.40009845    0.00000000
 
 There are   148 symmetry adapted cartesian basis functions of A1  symmetry.
 There are    56 symmetry adapted cartesian basis functions of A2  symmetry.
 There are    87 symmetry adapted cartesian basis functions of B1  symmetry.
 There are   105 symmetry adapted cartesian basis functions of B2  symmetry.
 There are   117 symmetry adapted basis functions of A1  symmetry.
 There are    50 symmetry adapted basis functions of A2  symmetry.
 There are    74 symmetry adapted basis functions of B1  symmetry.
 There are    88 symmetry adapted basis functions of B2  symmetry.
   329 basis functions,   627 primitive gaussians,   396 cartesian basis functions
    49 alpha electrons       49 beta electrons
       nuclear repulsion energy       731.0256734782 Hartrees.
 IExCor= 1009 DFT=T Ex+Corr=PBE1PBE ExCW=0 ScaHFX=  0.250000
 ScaDFX=  0.750000  0.750000  1.000000  1.000000 ScalE2=  1.000000  1.000000
 IRadAn=      5 IRanWt=     -1 IRanGd=            0 ICorTp=0 IEmpDi=141
 NAtoms=    7 NActive=    7 NUniq=    4 SFac= 3.06D+00 NAtFMM=   60 NAOKFM=F Big=F
 Integral buffers will be    131072 words long.
 Raffenetti 2 integral format.
 Two-electron integral symmetry is turned on.
 R6Disp:  Grimme-D3(BJ) Dispersion energy=       -0.0104428616 Hartrees.
 Nuclear repulsion after empirical dispersion term =      731.0152306166 Hartrees.
 Leave Link  301 at Sun Jan 22 18:31:58 2023, MaxMem=  1048576000 cpu:               0.3 elap:               0.1
 (Enter /home/pcmt/gaussian/g16.C.01/g16/l302.exe)
 NPDir=0 NMtPBC=     1 NCelOv=     1 NCel=       1 NClECP=     1 NCelD=      1
         NCelK=      1 NCelE2=     1 NClLst=     1 CellRange=     0.0.
 One-electron integrals computed using PRISM.
 One-electron integral symmetry used in STVInt
   4 Symmetry operations used in ECPInt.
 ECPInt:  NShTT=    5356 NPrTT=   15928 LenC2=    5143 LenP2D=   11913.
 LDataN:  DoStor=T MaxTD1= 9 Len=  602
 NBasis=   329 RedAO= T EigKep=  5.73D-04  NBF=   117    50    74    88
 NBsUse=   329 1.00D-06 EigRej= -1.00D+00 NBFU=   117    50    74    88
 Precomputing XC quadrature grid using
 IXCGrd= 4 IRadAn=           5 IRanWt=          -1 IRanGd=           0 AccXCQ= 0.00D+00.
 Defaulting to unpruned grid for atomic number  92.
 Generated NRdTot=       0 NPtTot=           0 NUsed=           0 NTot=          32
 NSgBfM=   390   390   390   390   390 MxSgAt=     7 MxSgA2=     7.
 Leave Link  302 at Sun Jan 22 18:32:00 2023, MaxMem=  1048576000 cpu:               5.4 elap:               2.0
 (Enter /home/pcmt/gaussian/g16.C.01/g16/l303.exe)
 DipDrv:  MaxL=1.
 Leave Link  303 at Sun Jan 22 18:32:00 2023, MaxMem=  1048576000 cpu:               0.2 elap:               0.1
 (Enter /home/pcmt/gaussian/g16.C.01/g16/l401.exe)
 Initial guess from the checkpoint file:  "gs-uo2_cl2_2ar.pbe0-d3.optg.chk"
 B after Tr=     0.000000    0.000000    0.000000
         Rot=    0.639655    0.301399    0.639655   -0.301399 Ang= 100.47 deg.
 Guess basis will be translated and rotated to current coordinates.
 JPrj=2 DoOrth=T DoCkMO=T.
 Initial guess orbital symmetries:
       Occupied  (?A) (?A) (B1) (A1) (A1) (?A) (?A) (?A) (?A) (B1)
                 (?A) (?A) (?A) (?A) (?A) (?A) (A1) (B2) (A2) (B1)
                 (A1) (A1) (B1) (?A) (?A) (A1) (B2) (A1) (A1) (B2)
                 (B1) (?A) (?A) (A1) (?A) (?A) (B2) (A2) (B1) (A1)
                 (B2) (A1) (B1) (A1) (B2) (A1) (B2) (A2) (B1)
       Virtual   (A1) (B2) (B1) (A2) (A1) (B2) (A1) (A1) (B2) (A1)
                 (B1) (B2) (B1) (A1) (A2) (B1) (B2) (A1) (B1) (A1)
                 (?A) (?A) (A1) (A1) (B1) (B2) (B2) (A2) (B2) (A1)
                 (A1) (A2) (B2) (A1) (B1) (B1) (A1) (B2) (A2) (B2)
                 (?A) (?A) (A2) (B2) (B1) (A1) (B1) (A2) (A1) (B2)
                 (?A) (?A) (B1) (A1) (?A) (B2) (?A) (A1) (A1) (B2)
                 (A1) (B1) (B1) (A2) (?A) (?A) (B1) (A1) (A1) (A2)
                 (A1) (B2) (B1) (A1) (B2) (A2) (B2) (A1) (B2) (A2)
                 (B1) (A1) (B2) (?A) (?A) (B2) (A1) (B2) (B1) (A1)
                 (A1) (B2) (A1) (B2) (A1) (A1) (?A) (?A) (B1) (B2)
                 (A1) (B2) (B1) (A2) (A1) (B1) (A2) (B2) (A1) (A1)
                 (A2) (A2) (B1) (B2) (A1) (B1) (B2) (A1) (A1) (B1)
                 (B2) (B2) (A1) (B1) (A2) (B2) (B2) (B1) (A1) (A2)
                 (B2) (A2) (A1) (B1) (A1) (B1) (B2) (B2) (A1) (A2)
                 (A1) (B2) (B1) (A1) (B1) (?A) (?A) (A2) (A1) (B2)
                 (A2) (?A) (B1) (?A) (B1) (B1) (A2) (A1) (B2) (A2)
                 (A1) (B2) (A2) (B1) (?A) (?A) (A2) (B1) (B2) (A2)
                 (A1) (A1) (B1) (A2) (?A) (B1) (?A) (A1) (B2) (A1)
                 (B2) (?A) (?A) (B1) (A1) (A2) (A1) (B2) (B1) (?A)
                 (?A) (A1) (B2) (B2) (A1) (A1) (B1) (B1) (B1) (A2)
                 (?A) (?A) (A1) (B2) (A1) (B2) (?A) (?A) (A2) (B2)
                 (A1) (B1) (B1) (A2) (A1) (A1) (B2) (B1) (A1) (B2)
                 (A2) (B1) (A1) (B2) (B1) (A2) (A1) (A2) (A1) (B1)
                 (B2) (A1) (B2) (B1) (A1) (B2) (A1) (B1) (A2) (A1)
                 (B1) (A1) (A2) (B1) (B2) (A1) (A2) (?A) (B1) (?A)
                 (B2) (A1) (A2) (B1) (B2) (A1) (A1) (B2) (A2) (B1)
                 (A1) (A1) (B2) (A1) (B2) (B1) (B2) (A1) (A1) (A1)
                 (B1) (A1) (B2) (B1) (A1) (?A) (?A) (B1) (A1) (A1)
 Leave Link  401 at Sun Jan 22 18:32:01 2023, MaxMem=  1048576000 cpu:               1.2 elap:               0.3
 (Enter /home/pcmt/gaussian/g16.C.01/g16/l502.exe)
 Integral symmetry usage will be decided dynamically.
 Closed shell SCF:
 Using DIIS extrapolation, IDIIS=  1040.
 NGot=  1048576000 LenX=  1048254116 LenY=  1048096859
 Requested convergence on RMS density matrix=1.00D-08 within 100 cycles.
 Requested convergence on MAX density matrix=1.00D-06.
 Requested convergence on             energy=1.00D-06.
 No special actions if energy rises.
 Fock matrices will be formed incrementally for  20 cycles.
 An orbital has undefined symmetry, so N**3 symmetry is turned off.

 Cycle   1  Pass 1  IDiag  1:
 Density matrix breaks symmetry, PCut= 1.00D-04
 Density matrix has no symmetry -- integrals replicated.
 FoFJK:  IHMeth= 1 ICntrl=       0 DoSepK=F KAlg= 0 I1Cent=           0 FoldK=F
 IRaf= 930000000 NMat=       1 IRICut=       1 DoRegI=T DoRafI=F ISym2E= 2 IDoP0=0 IntGTp=1.
 FoFCou: FMM=F IPFlag=           0 FMFlag=      100000 FMFlg1=           0
         NFxFlg=           0 DoJE=F BraDBF=F KetDBF=F FulRan=T
         wScrn=  0.000000 ICntrl=         0 IOpCl=  0 I1Cent=           0 NGrid=           0
         NMat0=    1 NMatS0=      1 NMatT0=    0 NMatD0=    1 NMtDS0=    0 NMtDT0=    0
 Integrals replicated using symmetry in FoFCou.
 Defaulting to unpruned grid for atomic number  92.
 Defaulting to unpruned grid for atomic number  92.
 Defaulting to unpruned grid for atomic number  92.
 Defaulting to unpruned grid for atomic number  92.
 E= -1589.80547792442    
 DIIS: error= 1.97D-02 at cycle   1 NSaved=   1.
 NSaved= 1 IEnMin= 1 EnMin= -1589.80547792442     IErMin= 1 ErrMin= 1.97D-02
 ErrMax= 1.97D-02  0.00D+00 EMaxC= 1.00D-01 BMatC= 9.62D-02 BMatP= 9.62D-02
 IDIUse=3 WtCom= 8.03D-01 WtEn= 1.97D-01
 Coeff-Com:  0.100D+01
 Coeff-En:   0.100D+01
 Coeff:      0.100D+01
 Gap=     0.174 Goal=   None    Shift=    0.000
 GapD=    0.174 DampG=1.000 DampE=0.250 DampFc=0.2500 IDamp=-1.
 Damping current iteration by 2.50D-01
 RMSDP=1.14D-03 MaxDP=3.88D-02              OVMax= 1.18D-01

 Cycle   2  Pass 1  IDiag  1:
 E= -1589.82396892385     Delta-E=       -0.018490999430 Rises=F Damp=T
 DIIS: error= 1.49D-02 at cycle   2 NSaved=   2.
 NSaved= 2 IEnMin= 2 EnMin= -1589.82396892385     IErMin= 2 ErrMin= 1.49D-02
 ErrMax= 1.49D-02  0.00D+00 EMaxC= 1.00D-01 BMatC= 5.35D-02 BMatP= 9.62D-02
 IDIUse=3 WtCom= 8.51D-01 WtEn= 1.49D-01
 Coeff-Com: -0.181D+01 0.281D+01
 Coeff-En:   0.000D+00 0.100D+01
 Coeff:     -0.154D+01 0.254D+01
 Gap=     0.212 Goal=   None    Shift=    0.000
 RMSDP=9.34D-04 MaxDP=3.37D-02 DE=-1.85D-02 OVMax= 9.32D-02

 Cycle   3  Pass 1  IDiag  1:
 RMSU=  9.25D-04    CP:  9.95D-01
 E= -1589.80390300282     Delta-E=        0.020065921024 Rises=F Damp=F
 DIIS: error= 2.51D-02 at cycle   3 NSaved=   3.
 NSaved= 3 IEnMin= 2 EnMin= -1589.82396892385     IErMin= 2 ErrMin= 1.49D-02
 ErrMax= 2.51D-02  0.00D+00 EMaxC= 1.00D-01 BMatC= 1.32D-01 BMatP= 5.35D-02
 IDIUse=2 WtCom= 0.00D+00 WtEn= 1.00D+00
 Coeff-En:   0.000D+00 0.653D+00 0.347D+00
 Coeff:      0.000D+00 0.653D+00 0.347D+00
 Gap=     0.106 Goal=   None    Shift=    0.000
 RMSDP=1.29D-03 MaxDP=1.10D-01 DE= 2.01D-02 OVMax= 1.65D-01

 Cycle   4  Pass 1  IDiag  1:
 RMSU=  1.12D-03    CP:  1.01D+00  3.96D-01
 E= -1589.64448478016     Delta-E=        0.159418222660 Rises=F Damp=F
 DIIS: error= 5.05D-02 at cycle   4 NSaved=   4.
 NSaved= 4 IEnMin= 2 EnMin= -1589.82396892385     IErMin= 2 ErrMin= 1.49D-02
 ErrMax= 5.05D-02  0.00D+00 EMaxC= 1.00D-01 BMatC= 4.30D-01 BMatP= 5.35D-02
 IDIUse=2 WtCom= 0.00D+00 WtEn= 1.00D+00
 Coeff-En:   0.000D+00 0.000D+00 0.658D+00 0.342D+00
 Coeff:      0.000D+00 0.000D+00 0.658D+00 0.342D+00
 Gap=     0.156 Goal=   None    Shift=    0.000
 RMSDP=6.73D-04 MaxDP=5.27D-02 DE= 1.59D-01 OVMax= 1.01D-01

 Cycle   5  Pass 1  IDiag  1:
 RMSU=  1.32D-04    CP:  1.00D+00  7.65D-01  5.14D-01
 E= -1589.88115407385     Delta-E=       -0.236669293694 Rises=F Damp=F
 DIIS: error= 8.08D-03 at cycle   5 NSaved=   5.
 NSaved= 5 IEnMin= 5 EnMin= -1589.88115407385     IErMin= 5 ErrMin= 8.08D-03
 ErrMax= 8.08D-03  0.00D+00 EMaxC= 1.00D-01 BMatC= 1.31D-02 BMatP= 5.35D-02
 IDIUse=3 WtCom= 9.19D-01 WtEn= 8.08D-02
 Coeff-Com: -0.381D-01 0.492D-01 0.318D+00 0.728D-01 0.598D+00
 Coeff-En:   0.000D+00 0.000D+00 0.158D+00 0.000D+00 0.842D+00
 Coeff:     -0.350D-01 0.453D-01 0.305D+00 0.669D-01 0.618D+00
 Gap=     0.156 Goal=   None    Shift=    0.000
 RMSDP=1.42D-04 MaxDP=7.29D-03 DE=-2.37D-01 OVMax= 2.21D-02

 Cycle   6  Pass 1  IDiag  1:
 RMSU=  9.96D-05    CP:  1.00D+00  8.07D-01  4.67D-01  4.13D-01
 E= -1589.88832230008     Delta-E=       -0.007168226229 Rises=F Damp=F
 DIIS: error= 1.49D-03 at cycle   6 NSaved=   6.
 NSaved= 6 IEnMin= 6 EnMin= -1589.88832230008     IErMin= 6 ErrMin= 1.49D-03
 ErrMax= 1.49D-03  0.00D+00 EMaxC= 1.00D-01 BMatC= 7.83D-04 BMatP= 1.31D-02
 IDIUse=3 WtCom= 9.85D-01 WtEn= 1.49D-02
 Coeff-Com:  0.557D-01-0.758D-01 0.786D-01-0.309D-01 0.424D+00 0.548D+00
 Coeff-En:   0.000D+00 0.000D+00 0.000D+00 0.000D+00 0.000D+00 0.100D+01
 Coeff:      0.549D-01-0.747D-01 0.774D-01-0.304D-01 0.418D+00 0.555D+00
 Gap=     0.163 Goal=   None    Shift=    0.000
 RMSDP=6.85D-05 MaxDP=4.48D-03 DE=-7.17D-03 OVMax= 1.05D-02

 Cycle   7  Pass 1  IDiag  1:
 RMSU=  1.69D-05    CP:  1.00D+00  8.26D-01  4.41D-01  7.23D-01  6.30D-01
 E= -1589.88905197250     Delta-E=       -0.000729672421 Rises=F Damp=F
 DIIS: error= 1.79D-04 at cycle   7 NSaved=   7.
 NSaved= 7 IEnMin= 7 EnMin= -1589.88905197250     IErMin= 7 ErrMin= 1.79D-04
 ErrMax= 1.79D-04  0.00D+00 EMaxC= 1.00D-01 BMatC= 7.70D-06 BMatP= 7.83D-04
 IDIUse=3 WtCom= 9.98D-01 WtEn= 1.79D-03
 Coeff-Com:  0.251D-01-0.340D-01 0.200D-01-0.130D-01 0.134D+00 0.211D+00
 Coeff-Com:  0.657D+00
 Coeff-En:   0.000D+00 0.000D+00 0.000D+00 0.000D+00 0.000D+00 0.000D+00
 Coeff-En:   0.100D+01
 Coeff:      0.251D-01-0.339D-01 0.200D-01-0.129D-01 0.134D+00 0.210D+00
 Coeff:      0.658D+00
 Gap=     0.163 Goal=   None    Shift=    0.000
 RMSDP=7.54D-06 MaxDP=3.38D-04 DE=-7.30D-04 OVMax= 7.95D-04

 Cycle   8  Pass 1  IDiag  1:
 RMSU=  5.37D-06    CP:  1.00D+00  8.28D-01  4.41D-01  7.13D-01  6.61D-01
                    CP:  7.83D-01
 E= -1589.88905731383     Delta-E=       -0.000005341324 Rises=F Damp=F
 DIIS: error= 4.65D-05 at cycle   8 NSaved=   8.
 NSaved= 8 IEnMin= 8 EnMin= -1589.88905731383     IErMin= 8 ErrMin= 4.65D-05
 ErrMax= 4.65D-05  0.00D+00 EMaxC= 1.00D-01 BMatC= 6.42D-07 BMatP= 7.70D-06
 IDIUse=1 WtCom= 1.00D+00 WtEn= 0.00D+00
 Coeff-Com:  0.365D-02-0.499D-02 0.545D-03-0.283D-02 0.135D-01 0.315D-01
 Coeff-Com:  0.223D+00 0.736D+00
 Coeff:      0.365D-02-0.499D-02 0.545D-03-0.283D-02 0.135D-01 0.315D-01
 Coeff:      0.223D+00 0.736D+00
 Gap=     0.163 Goal=   None    Shift=    0.000
 RMSDP=2.79D-06 MaxDP=1.36D-04 DE=-5.34D-06 OVMax= 5.98D-04

 Cycle   9  Pass 1  IDiag  1:
 RMSU=  1.48D-06    CP:  1.00D+00  8.29D-01  4.41D-01  7.23D-01  6.66D-01
                    CP:  8.45D-01  8.89D-01
 E= -1589.88905680558     Delta-E=        0.000000508244 Rises=F Damp=F
 DIIS: error= 3.88D-05 at cycle   9 NSaved=   9.
 NSaved= 9 IEnMin= 8 EnMin= -1589.88905731383     IErMin= 9 ErrMin= 3.88D-05
 ErrMax= 3.88D-05  0.00D+00 EMaxC= 1.00D-01 BMatC= 3.50D-07 BMatP= 6.42D-07
 IDIUse=1 WtCom= 1.00D+00 WtEn= 0.00D+00
 Coeff-Com:  0.224D-02-0.294D-02-0.301D-02 0.877D-03-0.101D-01-0.918D-02
 Coeff-Com:  0.102D-02 0.200D+00 0.821D+00
 Coeff:      0.224D-02-0.294D-02-0.301D-02 0.877D-03-0.101D-01-0.918D-02
 Coeff:      0.102D-02 0.200D+00 0.821D+00
 Gap=     0.163 Goal=   None    Shift=    0.000
 RMSDP=1.20D-06 MaxDP=9.41D-05 DE= 5.08D-07 OVMax= 1.68D-04

 Cycle  10  Pass 1  IDiag  1:
 RMSU=  3.83D-07    CP:  1.00D+00  8.29D-01  4.41D-01  7.25D-01  6.71D-01
                    CP:  8.58D-01  9.87D-01  1.13D+00
 E= -1589.88905700916     Delta-E=       -0.000000203571 Rises=F Damp=F
 DIIS: error= 7.18D-06 at cycle  10 NSaved=  10.
 NSaved=10 IEnMin= 8 EnMin= -1589.88905731383     IErMin=10 ErrMin= 7.18D-06
 ErrMax= 7.18D-06  0.00D+00 EMaxC= 1.00D-01 BMatC= 1.38D-08 BMatP= 3.50D-07
 IDIUse=1 WtCom= 1.00D+00 WtEn= 0.00D+00
 Coeff-Com:  0.410D-03-0.510D-03-0.916D-03 0.424D-03-0.320D-02-0.361D-02
 Coeff-Com: -0.173D-01-0.111D-01 0.183D+00 0.853D+00
 Coeff:      0.410D-03-0.510D-03-0.916D-03 0.424D-03-0.320D-02-0.361D-02
 Coeff:     -0.173D-01-0.111D-01 0.183D+00 0.853D+00
 Gap=     0.163 Goal=   None    Shift=    0.000
 RMSDP=3.55D-07 MaxDP=2.68D-05 DE=-2.04D-07 OVMax= 5.98D-05

 Cycle  11  Pass 1  IDiag  1:
 RMSU=  1.40D-07    CP:  1.00D+00  8.29D-01  4.41D-01  7.25D-01  6.73D-01
                    CP:  8.62D-01  1.01D+00  1.22D+00  1.05D+00
 E= -1589.88905692729     Delta-E=        0.000000081863 Rises=F Damp=F
 DIIS: error= 1.11D-06 at cycle  11 NSaved=  11.
 NSaved=11 IEnMin= 8 EnMin= -1589.88905731383     IErMin=11 ErrMin= 1.11D-06
 ErrMax= 1.11D-06  0.00D+00 EMaxC= 1.00D-01 BMatC= 3.49D-10 BMatP= 1.38D-08
 IDIUse=1 WtCom= 1.00D+00 WtEn= 0.00D+00
 Coeff-Com: -0.282D-03 0.377D-03 0.158D-03-0.352D-04 0.465D-03 0.154D-03
 Coeff-Com: -0.236D-02-0.183D-01-0.600D-01 0.158D+00 0.922D+00
 Coeff:     -0.282D-03 0.377D-03 0.158D-03-0.352D-04 0.465D-03 0.154D-03
 Coeff:     -0.236D-02-0.183D-01-0.600D-01 0.158D+00 0.922D+00
 Gap=     0.163 Goal=   None    Shift=    0.000
 RMSDP=9.63D-08 MaxDP=4.16D-06 DE= 8.19D-08 OVMax= 1.96D-05

 Cycle  12  Pass 1  IDiag  1:
 RMSU=  3.84D-08    CP:  1.00D+00  8.29D-01  4.41D-01  7.25D-01  6.73D-01
                    CP:  8.63D-01  1.01D+00  1.25D+00  1.19D+00  1.22D+00
 E= -1589.88905689202     Delta-E=        0.000000035277 Rises=F Damp=F
 DIIS: error= 6.91D-07 at cycle  12 NSaved=  12.
 NSaved=12 IEnMin= 8 EnMin= -1589.88905731383     IErMin=12 ErrMin= 6.91D-07
 ErrMax= 6.91D-07  0.00D+00 EMaxC= 1.00D-01 BMatC= 7.73D-11 BMatP= 3.49D-10
 IDIUse=1 WtCom= 1.00D+00 WtEn= 0.00D+00
 Coeff-Com: -0.116D-03 0.153D-03 0.894D-04-0.277D-04 0.244D-03 0.103D-03
 Coeff-Com: -0.426D-03-0.387D-02-0.201D-01-0.953D-02 0.188D+00 0.846D+00
 Coeff:     -0.116D-03 0.153D-03 0.894D-04-0.277D-04 0.244D-03 0.103D-03
 Coeff:     -0.426D-03-0.387D-02-0.201D-01-0.953D-02 0.188D+00 0.846D+00
 Gap=     0.163 Goal=   None    Shift=    0.000
 RMSDP=2.94D-08 MaxDP=1.48D-06 DE= 3.53D-08 OVMax= 6.07D-06

 Cycle  13  Pass 1  IDiag  1:
 RMSU=  1.71D-08    CP:  1.00D+00  8.29D-01  4.41D-01  7.25D-01  6.73D-01
                    CP:  8.63D-01  1.02D+00  1.26D+00  1.22D+00  1.32D+00
                    CP:  1.12D+00
 E= -1589.88905690078     Delta-E=       -0.000000008764 Rises=F Damp=F
 DIIS: error= 1.67D-07 at cycle  13 NSaved=  13.
 NSaved=13 IEnMin= 8 EnMin= -1589.88905731383     IErMin=13 ErrMin= 1.67D-07
 ErrMax= 1.67D-07  0.00D+00 EMaxC= 1.00D-01 BMatC= 8.24D-12 BMatP= 7.73D-11
 IDIUse=1 WtCom= 1.00D+00 WtEn= 0.00D+00
 Coeff-Com:  0.438D-04-0.588D-04-0.434D-05 0.326D-07-0.181D-04 0.740D-06
 Coeff-Com:  0.342D-03 0.336D-02 0.856D-02-0.369D-01-0.160D+00 0.232D+00
 Coeff-Com:  0.952D+00
 Coeff:      0.438D-04-0.588D-04-0.434D-05 0.326D-07-0.181D-04 0.740D-06
 Coeff:      0.342D-03 0.336D-02 0.856D-02-0.369D-01-0.160D+00 0.232D+00
 Coeff:      0.952D+00
 Gap=     0.163 Goal=   None    Shift=    0.000
 RMSDP=1.64D-08 MaxDP=7.81D-07 DE=-8.76D-09 OVMax= 4.22D-06

 Cycle  14  Pass 1  IDiag  1:
 RMSU=  6.31D-09    CP:  1.00D+00  8.29D-01  4.41D-01  7.25D-01  6.73D-01
                    CP:  8.63D-01  1.02D+00  1.26D+00  1.23D+00  1.38D+00
                    CP:  1.35D+00  1.11D+00
 E= -1589.88905690913     Delta-E=       -0.000000008353 Rises=F Damp=F
 DIIS: error= 3.57D-08 at cycle  14 NSaved=  14.
 NSaved=14 IEnMin= 8 EnMin= -1589.88905731383     IErMin=14 ErrMin= 3.57D-08
 ErrMax= 3.57D-08  0.00D+00 EMaxC= 1.00D-01 BMatC= 4.17D-13 BMatP= 8.24D-12
 IDIUse=1 WtCom= 1.00D+00 WtEn= 0.00D+00
 Coeff-Com:  0.116D-04-0.155D-04-0.812D-05 0.300D-05-0.303D-04-0.200D-04
 Coeff-Com:  0.405D-04 0.538D-03 0.274D-02-0.678D-02-0.405D-01-0.143D-01
 Coeff-Com:  0.186D+00 0.873D+00
 Coeff:      0.116D-04-0.155D-04-0.812D-05 0.300D-05-0.303D-04-0.200D-04
 Coeff:      0.405D-04 0.538D-03 0.274D-02-0.678D-02-0.405D-01-0.143D-01
 Coeff:      0.186D+00 0.873D+00
 Gap=     0.163 Goal=   None    Shift=    0.000
 RMSDP=3.34D-09 MaxDP=1.51D-07 DE=-8.35D-09 OVMax= 7.61D-07

 SCF Done:  E(RPBE1PBE) =  -1589.88905691     A.U. after   14 cycles
            NFock= 14  Conv=0.33D-08     -V/T= 2.2882
 KE= 1.234223480172D+03 PE=-5.063330165038D+03 EE= 1.508202397340D+03
 Leave Link  502 at Sun Jan 22 18:33:50 2023, MaxMem=  1048576000 cpu:             423.7 elap:             108.8
 (Enter /home/pcmt/gaussian/g16.C.01/g16/l601.exe)
 Copying SCF densities to generalized density rwf, IOpCl= 0 IROHF=0.

 **********************************************************************

            Population analysis using the SCF Density.

 **********************************************************************

 Orbital symmetries:
       Occupied  (B2) (A1) (B1) (A1) (A1) (B2) (A1) (B2) (A1) (B1)
                 (B2) (A1) (B2) (A1) (B1) (A2) (A1) (B2) (A2) (B1)
                 (A1) (A1) (B1) (B2) (A1) (B2) (A1) (A1) (A1) (B2)
                 (B1) (A1) (B2) (A1) (A2) (B2) (B1) (A2) (B1) (A1)
                 (B2) (A1) (B1) (A1) (B2) (A1) (B2) (A2) (B1)
       Virtual   (B2) (A1) (B1) (A2) (A1) (B2) (A1) (A1) (B2) (B1)
                 (A1) (B2) (B1) (A1) (A2) (B1) (A1) (B2) (A1) (A2)
                 (B2) (B1) (B1) (A1) (B2) (B1) (A2) (B2) (A1) (A2)
                 (A1) (A1) (B2) (B1) (B2) (A1) (A1) (B1) (A2) (B2)
                 (B1) (B2) (A1) (A2) (B2) (A1) (B1) (B2) (A1) (B1)
                 (A1) (A2) (A1) (A2) (B1) (A1) (B2) (A1) (B2) (B2)
                 (A1) (B1) (B2) (B1) (A1) (B1) (A2) (A1) (B2) (A1)
                 (A2) (B2) (B1) (A1) (A2) (B2) (B2) (A1) (A1) (B1)
                 (A2) (B2) (A1) (B1) (B2) (A1) (A2) (A1) (B1) (A1)
                 (B2) (B2) (A1) (A1) (B1) (A1) (B2) (A2) (B1) (B2)
                 (A1) (B2) (A2) (B1) (B1) (A2) (A1) (B2) (A1) (B1)
                 (A2) (A1) (B2) (A2) (A1) (B1) (B2) (B1) (A1) (B2)
                 (A1) (B1) (A1) (B2) (B2) (A2) (A1) (A2) (B1) (B2)
                 (A2) (A1) (B2) (B1) (A1) (B1) (B2) (A1) (B2) (A2)
                 (A1) (B1) (B2) (B1) (A1) (A1) (A2) (B2) (A1) (B2)
                 (A2) (A1) (B1) (B2) (B1) (A2) (A2) (B1) (B2) (A1)
                 (A1) (B2) (A2) (B1) (A1) (A2) (B1) (B2) (A1) (A2)
                 (B1) (B2) (B2) (A1) (A1) (A1) (B2) (A2) (B1) (A1)
                 (B2) (A1) (B1) (A1) (B2) (A2) (B2) (A1) (B1) (A2)
                 (B1) (A1) (B2) (A1) (B2) (A1) (B1) (B1) (B1) (A2)
                 (B2) (A1) (B2) (A1) (A1) (B1) (A2) (A2) (B2) (B1)
                 (B2) (A1) (A1) (B1) (A2) (A1) (B1) (B2) (A1) (B2)
                 (A2) (B1) (A1) (B2) (A1) (B1) (A2) (B1) (A1) (A2)
                 (A1) (B2) (B2) (B1) (A1) (B2) (A1) (B1) (A2) (A1)
                 (B1) (B1) (A1) (A2) (B2) (A1) (A2) (B1) (A1) (B2)
                 (A1) (B2) (A2) (B1) (B2) (A1) (A1) (B2) (A2) (B1)
                 (A1) (B2) (A1) (A1) (B2) (B1) (A1) (B2) (A1) (A1)
                 (B1) (A1) (B2) (B1) (A1) (A1) (B2) (B1) (A1) (A1)
 The electronic state is 1-A1.
 Alpha  occ. eigenvalues -- -101.66872-101.66872 -19.26089 -19.26088 -12.16508
 Alpha  occ. eigenvalues --   -9.49619  -9.49619  -7.60283  -7.60121  -7.56843
 Alpha  occ. eigenvalues --   -7.22584  -7.22584  -7.22470  -7.22470  -7.22340
 Alpha  occ. eigenvalues --   -7.22340  -3.96612  -3.96580  -3.95197  -3.95063
 Alpha  occ. eigenvalues --   -3.94353  -1.97058  -1.22622  -1.07016  -1.06565
 Alpha  occ. eigenvalues --   -1.01370  -1.01266  -0.99581  -0.79540  -0.78714
 Alpha  occ. eigenvalues --   -0.75730  -0.51703  -0.51086  -0.49867  -0.49792
 Alpha  occ. eigenvalues --   -0.49789  -0.49638  -0.43501  -0.43485  -0.42755
 Alpha  occ. eigenvalues --   -0.41262  -0.41240  -0.38362  -0.35084  -0.34920
 Alpha  occ. eigenvalues --   -0.32842  -0.31776  -0.31395  -0.30878
 Alpha virt. eigenvalues --   -0.14585  -0.14218  -0.14136  -0.14075  -0.08885
 Alpha virt. eigenvalues --   -0.07866  -0.06749  -0.00114   0.01215   0.03412
 Alpha virt. eigenvalues --    0.04439   0.04535   0.05041   0.06871   0.08153
 Alpha virt. eigenvalues --    0.08365   0.12551   0.14373   0.15799   0.15876
 Alpha virt. eigenvalues --    0.16800   0.17177   0.18316   0.18620   0.19160
 Alpha virt. eigenvalues --    0.19361   0.19432   0.20364   0.21461   0.22937
 Alpha virt. eigenvalues --    0.23168   0.25702   0.25956   0.27328   0.29755
 Alpha virt. eigenvalues --    0.31440   0.32206   0.34579   0.34783   0.36572
 Alpha virt. eigenvalues --    0.37639   0.37694   0.38647   0.40135   0.40692
 Alpha virt. eigenvalues --    0.41540   0.41737   0.44346   0.44441   0.47538
 Alpha virt. eigenvalues --    0.47725   0.48115   0.52394   0.53256   0.55101
 Alpha virt. eigenvalues --    0.57034   0.57883   0.60003   0.60088   0.61104
 Alpha virt. eigenvalues --    0.64471   0.65626   0.67051   0.67217   0.68200
 Alpha virt. eigenvalues --    0.69546   0.69904   0.70824   0.71141   0.71778
 Alpha virt. eigenvalues --    0.72091   0.72178   0.74310   0.74486   0.76117
 Alpha virt. eigenvalues --    0.76434   0.79250   0.80294   0.83125   0.84818
 Alpha virt. eigenvalues --    0.85995   0.88286   0.89281   0.95535   0.96382
 Alpha virt. eigenvalues --    0.98360   0.98501   1.06182   1.06210   1.11077
 Alpha virt. eigenvalues --    1.11150   1.16116   1.23376   1.39014   1.44725
 Alpha virt. eigenvalues --    1.44782   1.46778   1.48844   1.52909   1.53046
 Alpha virt. eigenvalues --    1.53140   1.57215   1.58089   1.59002   1.61358
 Alpha virt. eigenvalues --    1.63653   1.65994   1.67354   1.74505   1.78697
 Alpha virt. eigenvalues --    1.80200   1.81366   1.82112   1.83828   1.84094
 Alpha virt. eigenvalues --    1.85302   1.88185   1.90346   1.92867   1.93543
 Alpha virt. eigenvalues --    1.95492   1.97156   1.98272   1.98531   2.02108
 Alpha virt. eigenvalues --    2.02390   2.10812   2.10933   2.10957   2.12591
 Alpha virt. eigenvalues --    2.12649   2.13812   2.14011   2.16042   2.16605
 Alpha virt. eigenvalues --    2.18234   2.18817   2.22192   2.23008   2.27614
 Alpha virt. eigenvalues --    2.30729   2.32441   2.33290   2.33889   2.34055
 Alpha virt. eigenvalues --    2.38921   2.41188   2.41973   2.44809   2.46650
 Alpha virt. eigenvalues --    2.49394   2.51124   2.51589   2.51633   2.56396
 Alpha virt. eigenvalues --    2.57038   2.58266   2.58607   2.59657   2.59958
 Alpha virt. eigenvalues --    2.62235   2.62556   2.62602   2.62793   2.63313
 Alpha virt. eigenvalues --    2.63434   2.63481   2.64723   2.65173   2.66053
 Alpha virt. eigenvalues --    2.66159   2.66427   2.66514   2.66778   2.67337
 Alpha virt. eigenvalues --    2.68531   2.70717   2.72870   2.74614   2.76058
 Alpha virt. eigenvalues --    2.77390   2.88558   2.97470   3.00207   3.01094
 Alpha virt. eigenvalues --    3.02428   3.11356   3.12181   3.25096   3.65930
[...]
  10         (B1)--O          -7.561636          5.108968
  11         (A1)--O          -7.232002         20.566258
  12         (B2)--O          -7.232002         20.566219
  13         (B2)--O          -7.231450         20.568539
  14         (A1)--O          -7.231450         20.568537
  15         (B1)--O          -7.229953         20.573078
  16         (A2)--O          -7.229951         20.573007
  17         (A1)--O          -3.959343          7.298484
  18         (B2)--O          -3.958982          7.300592
  19         (A2)--O          -3.945240          7.286089
  20         (B1)--O          -3.945009          7.285544
  21         (A1)--O          -3.938154          7.272616
  22         (A1)--O          -1.970799          2.812298
  23         (B1)--O          -1.253412          2.410991
  24         (A1)--O          -1.065079          0.748178
  25         (B2)--O          -1.063592          0.716252
  26         (A1)--O          -1.035151          2.708452
  27         (B2)--O          -1.016683          2.289461
  28         (A1)--O          -0.983485          2.848869
  29         (A1)--O          -0.799279          3.166445
  30         (B2)--O          -0.789453          3.231731
  31         (B1)--O          -0.750350          3.289419
  32         (A1)--O          -0.511836          1.089002
  33         (B2)--O          -0.505914          1.093840
  34         (A1)--O          -0.499266          1.077347
  35         (B1)--O          -0.497685          1.108786
  36         (A2)--O          -0.495648          1.107982
  37         (B2)--O          -0.492550          1.114986
  38         (A2)--O          -0.452435          2.031384
  39         (B1)--O          -0.452210          2.079213
  40         (A1)--O          -0.438817          2.602011
  41         (B2)--O          -0.428285          2.811340
  42         (A1)--O          -0.425829          2.873835
  43         (B1)--O          -0.391598          3.829702
  44         (A1)--O          -0.361199          2.426613
  45         (B2)--O          -0.349541          2.409304
  46         (A1)--O          -0.336950          2.207931
  47         (B2)--O          -0.327995          2.399929
  48         (A2)--O          -0.324201          2.438592
  49         (B1)--O          -0.310187          2.729000
  50         (A1)--V          -0.139686          5.559656
  51         (B2)--V          -0.137775          5.811670
  52         (B1)--V          -0.135503          5.798592
  53         (A2)--V          -0.133933          5.774648
  54         (A1)--V          -0.082260          4.239559
  55         (B2)--V          -0.077285          5.194097
  56         (A1)--V          -0.040501          2.615668
  57         (A1)--V          -0.005765          0.906182
  58         (B2)--V           0.010396          2.090286
  59         (A1)--V           0.038347          0.527197
  60         (B1)--V           0.040711          0.977874
  61         (B2)--V           0.046282          0.709631
  62         (B1)--V           0.054648          3.563750
  63         (A1)--V           0.061203          1.470293
  64         (A2)--V           0.098661          2.085931
  65         (B1)--V           0.115062          2.642408
  66         (B2)--V           0.124935          0.543504
  67         (A1)--V           0.131513          0.534956
  68         (B1)--V           0.140868          0.769998
  69         (A1)--V           0.141999          0.624746
  70         (A2)--V           0.164172          0.540791
  71         (B1)--V           0.164265          0.970666
  72         (A1)--V           0.165428          0.758876
  73         (A1)--V           0.176191          0.810710
  74         (B1)--V           0.184269          0.714280
  75         (B2)--V           0.187979          0.606882
  76         (B2)--V           0.193603          0.683658
  77         (A2)--V           0.201155          1.048493
  78         (B2)--V           0.211904          0.941255
  79         (A1)--V           0.225971          0.860967
  80         (A1)--V           0.230349          0.938620
  81         (A2)--V           0.239864          0.880283
  82         (B2)--V           0.274701          1.440717
  83         (A1)--V           0.276768          1.260207
  84         (B1)--V           0.298211          1.876916
  85         (B1)--V           0.307112          1.246300
  86         (A1)--V           0.320905          1.455884
  87         (B2)--V           0.327068          1.346337
  88         (A2)--V           0.335353          1.415150
  89         (B2)--V           0.348277          1.507422
  90         (A1)--V           0.365355          1.450190
  91         (B2)--V           0.366988          1.316065
  92         (A2)--V           0.374620          1.555083
  93         (B2)--V           0.383529          1.391925
  94         (B1)--V           0.395250          1.542256
  95         (A1)--V           0.401675          1.482664
  96         (B1)--V           0.405660          1.590481
  97         (A2)--V           0.417165          1.590194
  98         (A1)--V           0.423062          1.593408
  99         (B2)--V           0.446021          1.740649
 100         (A1)--V           0.475076          1.675334
 101         (B2)--V           0.481552          1.944654
 102         (B1)--V           0.502123          1.640830
 103         (A1)--V           0.534809          1.447556
 104         (B1)--V           0.539870          1.735001
 105         (B2)--V           0.542561          1.734066
 106         (A2)--V           0.543046          1.811192
 107         (A1)--V           0.564963          1.792939
 108         (A1)--V           0.596266          1.913061
 109         (B2)--V           0.605416          1.526864
 110         (A1)--V           0.626946          1.686611
 111         (B1)--V           0.634782          1.877525
 112         (B1)--V           0.664864          1.690209
 113         (A2)--V           0.671646          1.853740
 114         (B2)--V           0.673734          1.969577
 115         (A1)--V           0.677398          1.604886
 116         (B1)--V           0.689807          2.059550
 117         (A1)--V           0.702184          2.631211
 118         (A1)--V           0.721853          2.069149
 119         (A2)--V           0.727639          2.024421
 120         (A1)--V           0.729773          1.975038
 121         (B2)--V           0.734393          1.760675
 122         (B1)--V           0.745247          1.696877
 123         (A1)--V           0.750365          2.243874
 124         (B2)--V           0.751342          1.959197
 125         (A2)--V           0.754561          1.968290
 126         (B2)--V           0.758380          2.052899
 127         (A1)--V           0.778204          2.356039
 128         (B2)--V           0.808489          2.231976
 129         (A2)--V           0.815164          1.758843
 130         (B1)--V           0.819726          1.820691
 131         (A1)--V           0.846764          2.064763
 132         (B2)--V           0.855183          2.158351
 133         (B1)--V           0.955712          1.856130
 134         (A2)--V           0.957401          1.739134
 135         (B2)--V           0.986434          2.669394
 136         (A1)--V           0.996234          1.985381
 137         (B2)--V           1.014243          2.165085
 138         (B1)--V           1.047741          2.139948
 139         (A1)--V           1.068727          3.081928
 140         (A1)--V           1.115438          3.490628
 141         (B2)--V           1.152553          3.520800
 142         (A1)--V           1.176779          3.681867
 143         (B2)--V           1.403949          3.773241
 144         (A1)--V           1.429522          2.955234
 145         (A1)--V           1.448061          4.121782
 146         (B1)--V           1.449561          4.181826
 147         (A2)--V           1.449709          4.099892
 148         (B1)--V           1.476909          3.946621
 149         (B2)--V           1.478035          4.335734
 150         (A1)--V           1.526125          4.266796
 151         (B2)--V           1.529551          3.319939
 152         (B1)--V           1.547608          3.017388
 153         (A2)--V           1.593653          3.237596
 154         (A1)--V           1.622956          3.610331
 155         (B1)--V           1.630348          3.217149
 156         (A2)--V           1.641615          3.260976
 157         (B2)--V           1.652563          3.716018
 158         (A1)--V           1.728698          3.857626
 159         (A1)--V           1.779813          2.946583
 160         (A2)--V           1.788933          4.723692
 161         (A2)--V           1.818239          4.944363
 162         (B1)--V           1.821719          4.704941
 163         (B2)--V           1.833177          4.700512
 164         (A1)--V           1.844174          4.697133
 165         (B1)--V           1.845466          4.819847
 166         (B2)--V           1.846325          2.914996
 167         (A1)--V           1.869039          4.613415
 168         (A1)--V           1.922757          4.461415
 169         (B1)--V           1.928068          4.412084
 170         (B2)--V           1.929713          4.781220
 171         (B2)--V           1.939816          4.510152
 172         (A1)--V           1.959325          4.546250
 173         (B1)--V           2.006019          4.407705
 174         (A2)--V           2.009580          4.182967
 175         (B2)--V           2.023196          5.064015
 176         (B2)--V           2.100127          3.700429
 177         (B1)--V           2.102571          3.847816
 178         (A1)--V           2.104118          3.654824
 179         (A2)--V           2.104828          3.195733
 180         (B2)--V           2.115668          3.291602
 181         (A2)--V           2.119327          3.241560
 182         (A1)--V           2.122572          3.509717
 183         (B1)--V           2.148147          3.413161
 184         (A1)--V           2.163700          3.720174
 185         (B1)--V           2.186356          4.163709
 186         (B2)--V           2.205615          4.031548
 187         (B2)--V           2.207607          4.332579
 188         (A1)--V           2.234690          5.253974
 189         (A2)--V           2.275669          6.645825
 190         (A1)--V           2.289115          4.500396
 191         (B2)--V           2.297954          6.929844
 192         (B1)--V           2.305914          5.433953
 193         (A1)--V           2.313332          6.872242
 194         (B1)--V           2.335235          6.250621
 195         (A1)--V           2.377728          5.138140
 196         (B2)--V           2.378976          5.055205
 197         (A2)--V           2.421028          5.005204
 198         (A1)--V           2.469480          5.961432
 199         (B2)--V           2.470709          5.959762
 200         (A2)--V           2.485254          6.160470
 201         (B2)--V           2.529343          6.112584
 202         (B1)--V           2.530136          6.099080
 203         (A1)--V           2.530462          6.171386
 204         (B1)--V           2.553910          6.227293
 205         (B1)--V           2.565485          5.651966
 206         (A2)--V           2.577031          5.943724
 207         (A1)--V           2.586391          5.537795
 208         (B2)--V           2.591374          5.053104
 209         (A2)--V           2.593564          5.435052
 210         (A1)--V           2.611164          5.032403
 211         (B2)--V           2.612763          5.208507
 212         (A2)--V           2.614294          4.755892
 213         (B1)--V           2.619210          4.329575
 214         (A1)--V           2.622947          4.242754
 215         (B2)--V           2.622994          4.200426
 216         (A2)--V           2.624179          4.266563
 217         (B1)--V           2.627826          4.232668
 218         (B2)--V           2.644305          4.453588
 219         (A2)--V           2.648061          5.383137
 220         (A1)--V           2.649586          4.860508
 221         (A1)--V           2.652983          5.604086
 222         (B1)--V           2.655654          5.492009
 223         (A2)--V           2.664326          4.379680
 224         (B2)--V           2.672972          4.957771
 225         (B1)--V           2.673087          4.595556
 226         (A1)--V           2.673420          4.427055
 227         (A1)--V           2.683573          6.495648
 228         (B2)--V           2.690437          5.124949
 229         (A1)--V           2.745873          4.919606
 230         (B2)--V           2.779896          5.201432
 231         (A1)--V           2.859884          6.976476
 232         (B2)--V           2.860827          6.688805
 233         (B1)--V           2.978918          7.168400
 234         (A1)--V           3.020865          7.147572
 235         (A2)--V           3.022332          7.117126
 236         (A1)--V           3.096033          7.734678
 237         (B2)--V           3.110132          7.117186
 238         (B1)--V           3.264279          7.890658
 239         (A2)--V           3.653650          5.166419
 240         (B1)--V           3.662429          5.177655
 241         (A1)--V           3.674987          5.189893
 242         (B2)--V           3.705519          5.213954
 243         (B2)--V           3.781635          5.319472
 244         (A1)--V           3.828462          5.370416
 245         (A1)--V           4.030949          9.073769
 246         (B1)--V           4.371300          9.012374
 247         (B1)--V           4.548852          9.408543
 248         (B1)--V           4.669112         11.892293
 249         (A2)--V           4.701949         11.692904
 250         (A1)--V           4.816819         12.084795
 251         (B2)--V           4.821252         12.577118
 252         (A1)--V           4.993776         11.685456
 253         (B2)--V           5.002140         12.332011
 254         (A1)--V           5.054417          7.611923
 255         (B2)--V           5.057237          7.287824
 256         (B1)--V           5.068334          6.447995
 257         (A2)--V           5.069086          6.500375
 258         (A2)--V           5.084172          8.384749
 259         (B2)--V           5.091422          6.469132
 260         (A1)--V           5.096939          6.821041
 261         (B1)--V           5.130641          7.984298
 262         (B1)--V           5.175244          7.294042
 263         (A2)--V           5.190817          7.501849
 264         (A1)--V           5.208346          9.837174
 265         (A1)--V           5.325707          7.287665
 266         (B2)--V           5.337583          7.124076
 267         (B1)--V           5.400841         11.343090
 268         (A1)--V           6.132435         11.906235
 269         (B2)--V           6.162679         12.395826
 270         (A2)--V           6.173857         16.094905
 271         (B1)--V           6.185088         16.019120
 272         (A1)--V           6.185389         15.330777
 273         (B2)--V           6.201010         16.117827
 274         (B1)--V           6.278901          9.845068
 275         (A2)--V           6.288983         11.549660
 276         (A1)--V           6.302408         12.944724
 277         (A2)--V           6.337691          9.683390
 278         (A1)--V           6.357582         13.820719
 279         (B1)--V           6.365561         10.965132
 280         (B2)--V           6.399635         14.209488
 281         (A1)--V           6.404965         12.624479
 282         (B2)--V           6.429069         11.861551
 283         (B1)--V           6.549465         11.285205
 284         (A1)--V           6.660420         10.699152
 285         (B2)--V           6.686285         10.288279
 286         (A1)--V           6.865685         11.380431
 287         (B1)--V           7.061499         14.474506
 288         (A2)--V           7.077830         14.013646
 289         (A1)--V           7.206494         15.895397
 290         (B1)--V           7.509047         12.633595
 291         (A1)--V           8.175980         16.257437
 292         (A2)--V           8.187939         16.147654
 293         (B1)--V           8.269958         16.008912
 294         (B2)--V           8.379114         16.468794
 295         (A1)--V           9.566016         17.169113
 296         (A2)--V          10.784938         33.586555
 297         (A1)--V          10.802190         33.617234
 298         (B1)--V          10.805057         33.610056
 299         (B2)--V          10.805162         33.618314
 300         (B2)--V          11.026325         33.604880
 301         (A1)--V          11.032597         33.593779
 302         (A2)--V          13.382461         34.652560
 303         (B1)--V          13.389941         34.651043
 304         (B2)--V          13.404353         34.636632
 305         (A1)--V          13.412970         34.634812
 306         (A1)--V          13.462207         34.632028
 307         (B2)--V          13.478003         34.632487
 308         (A2)--V          13.755593         34.572892
 309         (B1)--V          13.830485         34.600521
 310         (A1)--V          14.214594         34.589881
 311         (A1)--V          18.163289          7.129835
 312         (B2)--V          18.221504          7.159006
 313         (A1)--V          21.579457         43.723038
 314         (B2)--V          21.584871         43.735910
 315         (B1)--V          21.739981         43.967516
 316         (B2)--V          25.243578         44.534670
 317         (A1)--V          25.283076         44.575503
 318         (A1)--V          32.184162        437.413274
 319         (A1)--V          43.756689        108.755633
 320         (B1)--V          44.064512        109.080567
 321         (A1)--V          47.997862         93.044900
 322         (B2)--V          48.001686         93.046215
 323         (B1)--V          48.135941         93.115419
 324         (A1)--V          59.239105         43.882497
 325         (A1)--V         122.279581        236.683075
 326         (B2)--V         122.283017        236.686723
 327         (B1)--V         122.456718        236.852584
 328         (A1)--V         229.219453        139.243227
 329         (A1)--V         673.744799       1054.479261
 Total kinetic energy from orbitals= 1.234383561985D+03
 No NMR shielding tensors so no spin-rotation constants.
 Leave Link  601 at Sun Jan 22 19:15:28 2023, MaxMem=  1048576000 cpu:               1.9 elap:               0.5
 (Enter /home/pcmt/gaussian/g16.C.01/g16/l9999.exe)

 Test job not archived.
 1\1\GINC-U-5-3\FOpt\RPBE1PBE\Gen\Ar2Cl2O2U1\VALLET\22-Jan-2023\0\\#p P
 BE1PBE/GEN GFInput GFPrint 5D 7F IOP(6/7=3, 4/69=2, 6/10=1) Pseudo=Rea
 d EmpiricalDispersion=GD3BJ Symm=(Loose) Int=(UltraFine) Guess=(Read) 
 Scf=(NoVarAcc,MaxCycle=100,conver=8) Opt=Tight\\[UO2Cl2Ar2]2- - PBE0+D
 3BJ - GS\\0,1\U,0.,-0.4057596476,0.\O,-1.725193714,-0.2272327641,0.\O,
 1.725193714,-0.2272327641,0.\Cl,0.,-1.8296657925,2.0765987711\Cl,0.,-1
 .8296657925,-2.0765987711\Ar,0.,2.1559924224,-1.9652262838\Ar,0.,2.155
 9924224,1.9652262838\\Version=ES64L-G16RevC.01\State=1-A1\HF=-1589.918
 3091\RMSD=9.331e-09\RMSF=3.752e-08\Dipole=0.,2.422615,0.\Quadrupole=-2
 .8119771,3.6811086,-0.8691315,0.,0.,0.\PG=C02V [C2(U1),SGV(Ar2Cl2),SGV
 '(O2)]\\@


 I LOVE THOSE WHO LONG FOR THE IMPOSSIBLE.

                                 -- GOETHE
 Job cpu time:       0 days  2 hours 44 minutes 32.3 seconds.
 Elapsed time:       0 days  0 hours 43 minutes 28.4 seconds.
 File lengths (MBytes):  RWF=     71 Int=      0 D2E=      0 Chk=      9 Scr=      1
 Normal termination of Gaussian 16 at Sun Jan 22 19:15:28 2023.
