 Entering Gaussian System, Link 0=/home/pcmt/gaussian/g16.C.01/g16/g16
 AtFile(1): /home/vallet/basis/U-ECP60MWB_SEG
 AtFile(1): /home/vallet/basis/Ar-ECP10MWB_SEG
 AtFile(1): /home/vallet/basis/U-ECP60MWB
 AtFile(1): /home/vallet/basis/Ar-ECP10MWB
 Initial command:
 /home/pcmt/gaussian/g16.C.01/g16/l1.exe "/state/partition1/vallet/922764.phlam-s-sakura/Gau-132855.inp" -scrdir="/state/partition1/vallet/922764.phlam-s-sakura/"
 Entering Link 1 = /home/pcmt/gaussian/g16.C.01/g16/l1.exe PID=    132856.
  
 Copyright (c) 1988-2019, Gaussian, Inc.  All Rights Reserved.
  
 This is part of the Gaussian(R) 16 program.  It is based on
 the Gaussian(R) 09 system (copyright 2009, Gaussian, Inc.),
 the Gaussian(R) 03 system (copyright 2003, Gaussian, Inc.),
 the Gaussian(R) 98 system (copyright 1998, Gaussian, Inc.),
 the Gaussian(R) 94 system (copyright 1995, Gaussian, Inc.),
 the Gaussian 92(TM) system (copyright 1992, Gaussian, Inc.),
 the Gaussian 90(TM) system (copyright 1990, Gaussian, Inc.),
 the Gaussian 88(TM) system (copyright 1988, Gaussian, Inc.),
 the Gaussian 86(TM) system (copyright 1986, Carnegie Mellon
 University), and the Gaussian 82(TM) system (copyright 1983,
 Carnegie Mellon University). Gaussian is a federally registered
 trademark of Gaussian, Inc.
  
 This software contains proprietary and confidential information,
 including trade secrets, belonging to Gaussian, Inc.
  
 This software is provided under written license and may be
 used, copied, transmitted, or stored only in accord with that
 written license.
  
 The following legend is applicable only to US Government
 contracts under FAR:
  
                    RESTRICTED RIGHTS LEGEND
  
 Use, reproduction and disclosure by the US Government is
 subject to restrictions as set forth in subparagraphs (a)
 and (c) of the Commercial Computer Software - Restricted
 Rights clause in FAR 52.227-19.
  
 Gaussian, Inc.
 340 Quinnipiac St., Bldg. 40, Wallingford CT 06492
  
  
 ---------------------------------------------------------------
 Warning -- This program may not be used in any manner that
 competes with the business of Gaussian, Inc. or will provide
 assistance to any competitor of Gaussian, Inc.  The licensee
 of this program is prohibited from giving any competitor of
 Gaussian, Inc. access to this program.  By using this program,
 the user acknowledges that Gaussian, Inc. is engaged in the
 business of creating and licensing software in the field of
 computational chemistry and represents and warrants to the
 licensee that it is not a competitor of Gaussian, Inc. and that
 it will not use this program in any manner prohibited above.
 ---------------------------------------------------------------
  

 Cite this work as:
 Gaussian 16, Revision C.01,
 M. J. Frisch, G. W. Trucks, H. B. Schlegel, G. E. Scuseria, 
 M. A. Robb, J. R. Cheeseman, G. Scalmani, V. Barone, 
 G. A. Petersson, H. Nakatsuji, X. Li, M. Caricato, A. V. Marenich, 
 J. Bloino, B. G. Janesko, R. Gomperts, B. Mennucci, H. P. Hratchian, 
 J. V. Ortiz, A. F. Izmaylov, J. L. Sonnenberg, D. Williams-Young, 
 F. Ding, F. Lipparini, F. Egidi, J. Goings, B. Peng, A. Petrone, 
 T. Henderson, D. Ranasinghe, V. G. Zakrzewski, J. Gao, N. Rega, 
 G. Zheng, W. Liang, M. Hada, M. Ehara, K. Toyota, R. Fukuda, 
 J. Hasegawa, M. Ishida, T. Nakajima, Y. Honda, O. Kitao, H. Nakai, 
 T. Vreven, K. Throssell, J. A. Montgomery, Jr., J. E. Peralta, 
 F. Ogliaro, M. J. Bearpark, J. J. Heyd, E. N. Brothers, K. N. Kudin, 
 V. N. Staroverov, T. A. Keith, R. Kobayashi, J. Normand, 
 K. Raghavachari, A. P. Rendell, J. C. Burant, S. S. Iyengar, 
 J. Tomasi, M. Cossi, J. M. Millam, M. Klene, C. Adamo, R. Cammi, 
 J. W. Ochterski, R. L. Martin, K. Morokuma, O. Farkas, 
 J. B. Foresman, and D. J. Fox, Gaussian, Inc., Wallingford CT, 2019.
 
 ******************************************
 Gaussian 16:  ES64L-G16RevC.01  3-Jul-2019
                22-Jan-2023 
 ******************************************
 %mem=8000Mb
 %NProc=4
 Will use up to    4 processors via shared memory.
 %oldchk=gs-uo2_cl2_2ar.pbe0-d3.optg.chk
 %chk=gs-uo2_cl2_2ar.pbe0-d3.freq.chk
 Copying data from "gs-uo2_cl2_2ar.pbe0-d3.optg.chk" to current chk file "gs-uo2_cl2_2ar.pbe0-d3.freq.chk"
 IOpt=  2 FromEx=T IUOpen= 4 IOptOp= 5 NList=   0 IFRang= 0 IUIn= 4 IUOut= 2.
 ----------------------------------------------------------------------
 #p PBE1PBE/GEN GFInput GFPrint 5D 7F IOP(6/7=3, 4/69=2, 6/10=1) Pseudo
 =Read EmpiricalDispersion=GD3BJ Symm=(Loose) Int=(UltraFine) Guess=(Ch
 eckPoint) Geom=CheckPoint Scf=(NoVarAcc,MaxCycle=100,conver=8) Freq
 ----------------------------------------------------------------------
 1/10=4,29=2,30=1,38=1/1,3;
 2/12=2,17=4,18=3,40=1/2;
 3/5=7,8=11,11=2,14=-4,16=1,17=8,24=110,25=1,30=1,71=2,74=-13,75=-5,116=-2,124=41,140=1/1,2,3;
 4/5=1,69=2/1;
 5/5=2,6=8,7=100,38=6,98=1/2;
 8/6=4,10=90,11=11/1;
 11/6=1,8=1,9=11,15=111,16=1/1,2,10;
 10/6=1/2;
 6/7=3,8=2,9=2,10=1,28=1/1;
 7/8=1,10=1,25=1/1,2,3,16;
 1/10=4,30=1/3;
 99//99;
 Leave Link    1 at Sun Jan 22 19:15:53 2023, MaxMem=  1048576000 cpu:               0.4 elap:               0.1
 (Enter /home/pcmt/gaussian/g16.C.01/g16/l101.exe)
 ------------------------------
 [UO2Cl2Ar2]2- - PBE0+D3BJ - GS
 ------------------------------
 Structure from the checkpoint file:  "gs-uo2_cl2_2ar.pbe0-d3.freq.chk"
 Charge =  0 Multiplicity = 1
 Redundant internal coordinates found in file.  (old form).
 U,0,0.,-0.4057596476,0.
 O,0,-1.725193714,-0.2272327641,0.
 O,0,1.725193714,-0.2272327641,0.
 Cl,0,0.,-1.8296657925,2.0765987711
 Cl,0,0.,-1.8296657925,-2.0765987711
 Ar,0,0.,2.1559924224,-1.9652262838
 Ar,0,0.,2.1559924224,1.9652262838
 Recover connectivity data from disk.
 ITRead=  0  0  0  0  0  0  0
 MicOpt= -1 -1 -1 -1 -1 -1 -1
 NAtoms=      7 NQM=        7 NQMF=       0 NMMI=      0 NMMIF=      0
                NMic=       0 NMicF=      0.
                    Isotopes and Nuclear Properties:
 (Nuclear quadrupole moments (NQMom) in fm**2, nuclear magnetic moments (NMagM)
  in nuclear magnetons)

  Atom         1           2           3           4           5           6           7
 IAtWgt=         238          16          16          35          35          40          40
 AtmWgt= 238.0508000  15.9949146  15.9949146  34.9688527  34.9688527  39.9623831  39.9623831
 NucSpn=           0           0           0           3           3           0           0
 AtZEff=   0.0000000   5.6000000   5.6000000  14.2400000  14.2400000 216.0000000 216.0000000
 NQMom=    0.0000000   0.0000000   0.0000000  -8.1650000  -8.1650000   0.0000000   0.0000000
 NMagM=    0.0000000   0.0000000   0.0000000   0.8218740   0.8218740   0.0000000   0.0000000
 AtZNuc=  92.0000000   8.0000000   8.0000000  17.0000000  17.0000000  18.0000000  18.0000000
 Leave Link  101 at Sun Jan 22 19:15:53 2023, MaxMem=  1048576000 cpu:               0.7 elap:               0.2
 (Enter /home/pcmt/gaussian/g16.C.01/g16/l103.exe)

 GradGradGradGradGradGradGradGradGradGradGradGradGradGradGradGradGradGrad
 Berny optimization.
 Initialization pass.
                           ----------------------------
                           !    Initial Parameters    !
                           ! (Angstroms and Degrees)  !
 --------------------------                            --------------------------
 ! Name  Definition              Value          Derivative Info.                !
 --------------------------------------------------------------------------------
 ! R1    R(1,2)                  1.7344         calculate D2E/DX2 analytically  !
 ! R2    R(1,3)                  1.7344         calculate D2E/DX2 analytically  !
 ! R3    R(1,4)                  2.5179         calculate D2E/DX2 analytically  !
 ! R4    R(1,5)                  2.5179         calculate D2E/DX2 analytically  !
 ! R5    R(1,6)                  3.2287         calculate D2E/DX2 analytically  !
 ! R6    R(1,7)                  3.2287         calculate D2E/DX2 analytically  !
 ! R7    R(4,7)                  3.9872         calculate D2E/DX2 analytically  !
 ! R8    R(5,6)                  3.9872         calculate D2E/DX2 analytically  !
 ! A1    A(2,1,4)               93.3371         calculate D2E/DX2 analytically  !
 ! A2    A(2,1,5)               93.3371         calculate D2E/DX2 analytically  !
 ! A3    A(2,1,6)               85.3155         calculate D2E/DX2 analytically  !
 ! A4    A(2,1,7)               85.3155         calculate D2E/DX2 analytically  !
 ! A5    A(3,1,4)               93.3371         calculate D2E/DX2 analytically  !
 ! A6    A(3,1,5)               93.3371         calculate D2E/DX2 analytically  !
 ! A7    A(3,1,6)               85.3155         calculate D2E/DX2 analytically  !
 ! A8    A(3,1,7)               85.3155         calculate D2E/DX2 analytically  !
 ! A9    A(4,1,5)              111.1238         calculate D2E/DX2 analytically  !
 ! A10   A(6,1,7)               74.9866         calculate D2E/DX2 analytically  !
 ! A11   L(2,1,3,4,-1)         186.6741         calculate D2E/DX2 analytically  !
 ! A12   L(4,1,6,3,-1)         178.6526         calculate D2E/DX2 analytically  !
 ! A13   L(5,1,7,3,-1)         178.6526         calculate D2E/DX2 analytically  !
 ! A14   L(2,1,3,4,-2)         189.7563         calculate D2E/DX2 analytically  !
 ! A15   L(4,1,6,3,-2)         198.0633         calculate D2E/DX2 analytically  !
 ! A16   L(5,1,7,3,-2)         161.9367         calculate D2E/DX2 analytically  !
 ! D1    D(2,1,5,4)            -94.8781         calculate D2E/DX2 analytically  !
 ! D2    D(2,1,6,4)             86.3959         calculate D2E/DX2 analytically  !
 ! D3    D(2,1,7,4)             93.6041         calculate D2E/DX2 analytically  !
 ! D4    D(2,1,6,5)            -93.6041         calculate D2E/DX2 analytically  !
 ! D5    D(2,1,7,5)            -86.3959         calculate D2E/DX2 analytically  !
 ! D6    D(2,1,7,6)            -86.3959         calculate D2E/DX2 analytically  !
 ! D7    D(3,1,5,4)             94.8781         calculate D2E/DX2 analytically  !
 ! D8    D(3,1,6,4)            -86.3959         calculate D2E/DX2 analytically  !
 ! D9    D(3,1,7,4)            -93.6041         calculate D2E/DX2 analytically  !
 ! D10   D(3,1,6,5)             93.6041         calculate D2E/DX2 analytically  !
 ! D11   D(3,1,7,5)             86.3959         calculate D2E/DX2 analytically  !
 ! D12   D(3,1,7,6)             86.3959         calculate D2E/DX2 analytically  !
 --------------------------------------------------------------------------------
 Trust Radius=3.00D-01 FncErr=1.00D-07 GrdErr=1.00D-07 EigMax=2.50D+02 EigMin=1.00D-04
 Number of steps in this run=      2 maximum allowed number of steps=      2.
 GradGradGradGradGradGradGradGradGradGradGradGradGradGradGradGradGradGrad

 Leave Link  103 at Sun Jan 22 19:15:53 2023, MaxMem=  1048576000 cpu:               0.1 elap:               0.0
 (Enter /home/pcmt/gaussian/g16.C.01/g16/l202.exe)
                          Input orientation:                          
 ---------------------------------------------------------------------
 Center     Atomic      Atomic             Coordinates (Angstroms)
 Number     Number       Type             X           Y           Z
 ---------------------------------------------------------------------
      1         92           0       -0.000000   -0.405760    0.000000
      2          8           0       -1.725194   -0.227233    0.000000
      3          8           0        1.725194   -0.227233   -0.000000
      4         17           0        0.000000   -1.829666    2.076599
      5         17           0       -0.000000   -1.829666   -2.076599
      6         18           0       -0.000000    2.155992   -1.965226
      7         18           0        0.000000    2.155992    1.965226
 ---------------------------------------------------------------------
                    Distance matrix (angstroms):
                    1          2          3          4          5
     1  U    0.000000
     2  O    1.734406   0.000000
     3  O    1.734406   3.450387   0.000000
     4  Cl   2.517890   3.139482   3.139482   0.000000
     5  Cl   2.517890   3.139482   3.139482   4.153198   0.000000
     6  Ar   3.228729   3.538103   3.538103   5.676427   3.987214
     7  Ar   3.228729   3.538103   3.538103   3.987214   5.676427
                    6          7
     6  Ar   0.000000
     7  Ar   3.930453   0.000000
 Stoichiometry    Ar2Cl2O2U
 Framework group  C2V[C2(U),SGV(Ar2Cl2),SGV'(O2)]
 Deg. of freedom     6
 Full point group                 C2V     NOp   4
 RotChk:  IX=0 Diff= 2.64D-16
 Largest Abelian subgroup         C2V     NOp   4
 Largest concise Abelian subgroup C2V     NOp   4
                         Standard orientation:                         
 ---------------------------------------------------------------------
 Center     Atomic      Atomic             Coordinates (Angstroms)
 Number     Number       Type             X           Y           Z
 ---------------------------------------------------------------------
      1         92           0        0.000000    0.000000    0.262172
      2          8           0       -1.725194    0.000000    0.083646
      3          8           0        1.725194   -0.000000    0.083646
      4         17           0        0.000000    2.076599    1.686079
      5         17           0       -0.000000   -2.076599    1.686079
      6         18           0        0.000000   -1.965226   -2.299580
      7         18           0        0.000000    1.965226   -2.299580
 ---------------------------------------------------------------------
 Rotational constants (GHZ):           0.7163625           0.6892161           0.4048462
 Leave Link  202 at Sun Jan 22 19:15:53 2023, MaxMem=  1048576000 cpu:               0.0 elap:               0.0
 (Enter /home/pcmt/gaussian/g16.C.01/g16/l301.exe)
 General basis read from cards:  (5D, 7F)
 Centers:       1
 S 3 1.00
     Exponent=  1.2098082000D+04 Coefficients=  1.0200000000D-04
     Exponent=  1.8337573000D+03 Coefficients=  7.7100000000D-04
     Exponent=  3.5168632000D+02 Coefficients=  2.9690000000D-03
 S 1 1.00
     Exponent=  1.0431426000D+02 Coefficients=  1.0000000000D+00
 S 3 1.00
     Exponent=  6.0905822000D+01 Coefficients=  4.9868000000D-02
     Exponent=  3.5515086000D+01 Coefficients= -2.4531300000D-01
     Exponent=  2.0891227000D+01 Coefficients=  7.2384700000D-01
 S 1 1.00
     Exponent=  1.0184647000D+01 Coefficients=  1.0000000000D+00
 S 1 1.00
     Exponent=  2.8518510000D+00 Coefficients=  1.0000000000D+00
 S 1 1.00
     Exponent=  1.5316160000D+00 Coefficients=  1.0000000000D+00
 S 1 1.00
     Exponent=  6.1620300000D-01 Coefficients=  1.0000000000D+00
 S 1 1.00
     Exponent=  2.7949400000D-01 Coefficients=  1.0000000000D+00
 S 1 1.00
     Exponent=  5.7253000000D-02 Coefficients=  1.0000000000D+00
 S 1 1.00
     Exponent=  2.3443000000D-02 Coefficients=  1.0000000000D+00
 P 5 1.00
     Exponent=  2.9068451000D+03 Coefficients=  8.8000000000D-05
     Exponent=  6.9440053000D+02 Coefficients=  7.3200000000D-04
     Exponent=  2.2463479000D+02 Coefficients=  3.4140000000D-03
     Exponent=  8.0520526000D+01 Coefficients=  1.1099000000D-02
     Exponent=  2.4080211000D+01 Coefficients=  2.5216000000D-02
 P 1 1.00
     Exponent=  1.4077580000D+01 Coefficients=  1.0000000000D+00
 P 1 1.00
     Exponent=  8.2658460000D+00 Coefficients=  1.0000000000D+00
 P 1 1.00
     Exponent=  3.4236070000D+00 Coefficients=  1.0000000000D+00
 P 1 1.00
     Exponent=  1.7084170000D+00 Coefficients=  1.0000000000D+00
 P 1 1.00
     Exponent=  6.5504600000D-01 Coefficients=  1.0000000000D+00
 P 1 1.00
     Exponent=  2.8375500000D-01 Coefficients=  1.0000000000D+00
 P 1 1.00
     Exponent=  1.0181400000D-01 Coefficients=  1.0000000000D+00
 P 1 1.00
     Exponent=  3.0535000000D-02 Coefficients=  1.0000000000D+00
 D 6 1.00
     Exponent=  4.4901953000D+02 Coefficients=  5.0000000000D-05
     Exponent=  1.5635695000D+02 Coefficients=  3.2200000000D-04
     Exponent=  6.0242439000D+01 Coefficients=  1.7770000000D-03
     Exponent=  1.7772317000D+01 Coefficients=  2.5385000000D-02
     Exponent=  1.0454304000D+01 Coefficients= -8.9378000000D-02
     Exponent=  3.5834330000D+00 Coefficients=  4.4479900000D-01
 D 1 1.00
     Exponent=  1.7637240000D+00 Coefficients=  1.0000000000D+00
 D 1 1.00
     Exponent=  7.8403000000D-01 Coefficients=  1.0000000000D+00
 D 1 1.00
     Exponent=  2.7612700000D-01 Coefficients=  1.0000000000D+00
 D 1 1.00
     Exponent=  8.6980000000D-02 Coefficients=  1.0000000000D+00
 F 5 1.00
     Exponent=  1.0528793000D+02 Coefficients=  2.2800000000D-04
     Exponent=  3.5101181000D+01 Coefficients=  2.3080000000D-03
     Exponent=  1.4564138000D+01 Coefficients=  9.2530000000D-03
     Exponent=  4.6518850000D+00 Coefficients=  1.3694900000D-01
     Exponent=  2.2559730000D+00 Coefficients=  3.3980100000D-01
 F 1 1.00
     Exponent=  1.0102740000D+00 Coefficients=  1.0000000000D+00
 F 1 1.00
     Exponent=  4.1168000000D-01 Coefficients=  1.0000000000D+00
 F 1 1.00
     Exponent=  1.4412000000D-01 Coefficients=  1.0000000000D+00
 G 4 1.00
     Exponent=  1.0528793000D+02 Coefficients=  1.3700000000D-04
     Exponent=  3.5101181000D+01 Coefficients=  1.8310000000D-03
     Exponent=  1.4564138000D+01 Coefficients=  1.9940000000D-02
     Exponent=  4.6518850000D+00 Coefficients=  1.1075800000D-01
 G 1 1.00
     Exponent=  2.2559730000D+00 Coefficients=  1.0000000000D+00
 G 1 1.00
     Exponent=  1.0102740000D+00 Coefficients=  1.0000000000D+00
 ****
 Centers:       6      7
 S 3 1.00
     Exponent=  1.7466965500D+02 Coefficients=  2.5870000000D-03
     Exponent=  1.2695768000D+01 Coefficients=  6.2313000000D-02
     Exponent=  2.9178340000D+00 Coefficients= -1.0421580000D+00
 S 1 1.00
     Exponent=  6.7084000000D-01 Coefficients=  1.0000000000D+00
 S 1 1.00
     Exponent=  2.9911200000D-01 Coefficients=  1.0000000000D+00
 S 1 1.00
     Exponent=  1.3140200000D-01 Coefficients=  1.0000000000D+00
 P 3 1.00
     Exponent=  1.9887221000D+01 Coefficients=  2.3346000000D-02
     Exponent=  3.7761720000D+00 Coefficients= -2.2462100000D-01
     Exponent=  1.2115160000D+00 Coefficients=  1.1375960000D+00
 P 1 1.00
     Exponent=  5.3849900000D-01 Coefficients=  1.0000000000D+00
 P 1 1.00
     Exponent=  2.2957500000D-01 Coefficients=  1.0000000000D+00
 P 1 1.00
     Exponent=  9.5103000000D-02 Coefficients=  1.0000000000D+00
 D 1 1.00
     Exponent=  1.4509000000D+00 Coefficients=  1.0000000000D+00
 D 1 1.00
     Exponent=  4.3850000000D-01 Coefficients=  1.0000000000D+00
 D 1 1.00
     Exponent=  1.3250000000D-01 Coefficients=  1.0000000000D+00
 F 1 1.00
     Exponent=  9.3050000000D-01 Coefficients=  1.0000000000D+00
 ****
 Centers:       4      5
 Def2TZVP
 ****
 Centers:       2      3
 Def2TZVP
 ****
 ======================================================================================================
                                       Pseudopotential Parameters
 ======================================================================================================
  Center     Atomic      Valence      Angular      Power
  Number     Number     Electrons     Momentum     of R      Exponent        Coefficient   SO-Coeffient
 ======================================================================================================
    1         92           32
                                      H and up 
                                                     2        1.0000000        0.00000000    0.00000000
                                      S - H
                                                     2       16.4140387      536.51662778    0.00000000
                                      P - H
                                                     2        9.0605561      169.54492465    0.00000000
                                      D - H
                                                     2        8.8318320      142.61559837    0.00000000
                                      F - H
                                                     2        7.0185163       60.39307602    0.00000000
                                      G - H
                                                     2       12.8040884      -60.12998958    0.00000000
    2          8
                                   No pseudopotential on this center.
    3          8
                                   No pseudopotential on this center.
    4         17
                                   No pseudopotential on this center.
    5         17
                                   No pseudopotential on this center.
    6         18            8
                                      G and up 
                                                     2        1.0000000        0.00000000    0.00000000
                                      S - G
                                                     2       10.2617210       68.66778801    0.00000000
                                                     2        3.9527250       24.04276629    0.00000000
                                      P - G
                                                     2        5.3927140       27.73076331    0.00000000
                                                     2        2.6999670        4.04545904    0.00000000
                                      D - G
                                                     2        8.0862350       -8.13747696    0.00000000
                                                     2        4.0166320       -1.66452808    0.00000000
                                      F - G
                                                     2        5.2084590       -3.40009845    0.00000000
    7         18            8
                                      G and up 
                                                     2        1.0000000        0.00000000    0.00000000
                                      S - G
                                                     2       10.2617210       68.66778801    0.00000000
                                                     2        3.9527250       24.04276629    0.00000000
                                      P - G
                                                     2        5.3927140       27.73076331    0.00000000
                                                     2        2.6999670        4.04545904    0.00000000
                                      D - G
                                                     2        8.0862350       -8.13747696    0.00000000
                                                     2        4.0166320       -1.66452808    0.00000000
                                      F - G
                                                     2        5.2084590       -3.40009845    0.00000000
 ======================================================================================================
 Ernie: Thresh=  0.10000D-02 Tol=  0.10000D-05 Strict=F.
 AO basis set in the form of general basis input (Overlap normalization):
      1 0
 S   3 1.00       0.000000000000
      0.1209808200D+05  0.2884168448D-01
      0.1833757300D+04  0.2180092033D+00
      0.3516863200D+03  0.8395192276D+00
 S   3 1.00       0.000000000000
      0.6090582200D+02  0.9338504807D-01
      0.3551508600D+02 -0.4593840999D+00
      0.2089122700D+02  0.1355508280D+01
 S   1 1.00       0.000000000000
      0.1043142600D+03  0.1000000000D+01
 S   1 1.00       0.000000000000
      0.1018464700D+02  0.1000000000D+01
 S   1 1.00       0.000000000000
      0.2851851000D+01  0.1000000000D+01
 S   1 1.00       0.000000000000
      0.1531616000D+01  0.1000000000D+01
 S   1 1.00       0.000000000000
      0.6162030000D+00  0.1000000000D+01
 S   1 1.00       0.000000000000
      0.2794940000D+00  0.1000000000D+01
 S   1 1.00       0.000000000000
      0.5725300000D-01  0.1000000000D+01
 S   1 1.00       0.000000000000
      0.2344300000D-01  0.1000000000D+01
 P   5 1.00       0.000000000000
      0.2906845100D+04  0.2490724940D-02
      0.6944005300D+03  0.2071830291D-01
      0.2246347900D+03  0.9662880620D-01
      0.8052052600D+02  0.3141426831D+00
      0.2408021100D+02  0.7137059101D+00
 P   1 1.00       0.000000000000
      0.1407758000D+02  0.1000000000D+01
 P   1 1.00       0.000000000000
      0.8265846000D+01  0.1000000000D+01
 P   1 1.00       0.000000000000
      0.3423607000D+01  0.1000000000D+01
 P   1 1.00       0.000000000000
      0.1708417000D+01  0.1000000000D+01
 P   1 1.00       0.000000000000
      0.6550460000D+00  0.1000000000D+01
 P   1 1.00       0.000000000000
      0.2837550000D+00  0.1000000000D+01
 P   1 1.00       0.000000000000
      0.1018140000D+00  0.1000000000D+01
 P   1 1.00       0.000000000000
      0.3053500000D-01  0.1000000000D+01
 D   6 1.00       0.000000000000
      0.4490195300D+03  0.1244413406D-03
      0.1563569500D+03  0.8014022332D-03
      0.6024243900D+02  0.4422645243D-02
      0.1777231700D+02  0.6317886860D-01
      0.1045430400D+02 -0.2224463627D+00
      0.3583433000D+01  0.1107027677D+01
 D   1 1.00       0.000000000000
      0.1763724000D+01  0.1000000000D+01
 D   1 1.00       0.000000000000
      0.7840300000D+00  0.1000000000D+01
 D   1 1.00       0.000000000000
      0.2761270000D+00  0.1000000000D+01
 D   1 1.00       0.000000000000
      0.8698000000D-01  0.1000000000D+01
 F   5 1.00       0.000000000000
      0.1052879300D+03  0.5015876177D-03
      0.3510118100D+02  0.5077474656D-02
      0.1456413800D+02  0.2035609748D-01
      0.4651885000D+01  0.3012803625D+00
      0.2255973000D+01  0.7475437460D+00
 F   1 1.00       0.000000000000
      0.1010274000D+01  0.1000000000D+01
 F   1 1.00       0.000000000000
      0.4116800000D+00  0.1000000000D+01
 F   1 1.00       0.000000000000
      0.1441200000D+00  0.1000000000D+01
 G   4 1.00       0.000000000000
      0.1052879300D+03  0.1132460043D-02
      0.3510118100D+02  0.1513528715D-01
      0.1456413800D+02  0.1648266662D+00
      0.4651885000D+01  0.9155402153D+00
 G   1 1.00       0.000000000000
      0.2255973000D+01  0.1000000000D+01
 G   1 1.00       0.000000000000
      0.1010274000D+01  0.1000000000D+01
 ****
      2 0
 S   6 1.00       0.000000000000
      0.2703238263D+05  0.5722733521D-03
      0.4052387139D+04  0.4435323349D-02
      0.9223272271D+03  0.2302010771D-01
      0.2612407099D+03  0.9282249067D-01
      0.8535464135D+02  0.2937850001D+00
      0.3103503524D+02  0.6740160450D+00
 S   2 1.00       0.000000000000
      0.1226086073D+02  0.6383993703D+00
      0.4998707601D+01  0.3953458713D+00
 S   1 1.00       0.000000000000
      0.1170310816D+01  0.1000000000D+01
 S   1 1.00       0.000000000000
      0.4647474099D+00  0.1000000000D+01
 S   1 1.00       0.000000000000
      0.1850453636D+00  0.1000000000D+01
 P   4 1.00       0.000000000000
      0.6327495480D+02  0.1201833222D-01
      0.1462704938D+02  0.8300542179D-01
      0.4450122346D+01  0.3199174393D+00
      0.1527579965D+01  0.7071554292D+00
 P   1 1.00       0.000000000000
      0.5293511794D+00  0.1000000000D+01
 P   1 1.00       0.000000000000
      0.1747842127D+00  0.1000000000D+01
 D   1 1.00       0.000000000000
      0.2314000000D+01  0.1000000000D+01
 D   1 1.00       0.000000000000
      0.6450000000D+00  0.1000000000D+01
 F   1 1.00       0.000000000000
      0.1428000000D+01  0.1000000000D+01
 ****
      3 0
 S   6 1.00       0.000000000000
      0.2703238263D+05  0.5722733521D-03
      0.4052387139D+04  0.4435323349D-02
      0.9223272271D+03  0.2302010771D-01
      0.2612407099D+03  0.9282249067D-01
      0.8535464135D+02  0.2937850001D+00
      0.3103503524D+02  0.6740160450D+00
 S   2 1.00       0.000000000000
      0.1226086073D+02  0.6383993703D+00
      0.4998707601D+01  0.3953458713D+00
 S   1 1.00       0.000000000000
      0.1170310816D+01  0.1000000000D+01
 S   1 1.00       0.000000000000
      0.4647474099D+00  0.1000000000D+01
 S   1 1.00       0.000000000000
      0.1850453636D+00  0.1000000000D+01
 P   4 1.00       0.000000000000
      0.6327495480D+02  0.1201833222D-01
      0.1462704938D+02  0.8300542179D-01
      0.4450122346D+01  0.3199174393D+00
      0.1527579965D+01  0.7071554292D+00
 P   1 1.00       0.000000000000
      0.5293511794D+00  0.1000000000D+01
 P   1 1.00       0.000000000000
      0.1747842127D+00  0.1000000000D+01
 D   1 1.00       0.000000000000
      0.2314000000D+01  0.1000000000D+01
 D   1 1.00       0.000000000000
      0.6450000000D+00  0.1000000000D+01
 F   1 1.00       0.000000000000
      0.1428000000D+01  0.1000000000D+01
 ****
      4 0
 S   7 1.00       0.000000000000
      0.6950799094D+05  0.5145738965D-03
      0.1042615688D+05  0.3978134481D-02
      0.2373233406D+04  0.2045617867D-01
      0.6715642007D+03  0.8014810289D-01
      0.2184199979D+03  0.2345477032D+00
      0.7757224971D+02  0.4454336858D+00
      0.2888881528D+02  0.3546684250D+00
 S   3 1.00       0.000000000000
      0.1271052718D+03  0.1129368805D+00
      0.3933958296D+02  0.4837351421D+00
      0.7674067999D+01 -0.1229229739D+01
 S   2 1.00       0.000000000000
      0.3874562763D+01  0.6729682164D+00
      0.1838583257D+01  0.3495605141D+00
 S   1 1.00       0.000000000000
      0.5022905754D+00  0.1000000000D+01
 S   1 1.00       0.000000000000
      0.1796272342D+00  0.1000000000D+01
 P   5 1.00       0.000000000000
      0.6665042328D+03  0.3350250820D-02
      0.1576424169D+03  0.2676397041D-01
      0.5026252098D+02  0.1236268236D+00
      0.1853607811D+02  0.3584578792D+00
      0.7294053278D+01  0.6167729635D+00
 P   1 1.00       0.000000000000
      0.2943324899D+01  0.1000000000D+01
 P   1 1.00       0.000000000000
      0.1040497082D+01  0.1000000000D+01
 P   1 1.00       0.000000000000
      0.3845641508D+00  0.1000000000D+01
 P   1 1.00       0.000000000000
      0.1306964273D+00  0.1000000000D+01
 D   2 1.00       0.000000000000
      0.4610000000D+01  0.1826583505D+00
      0.1011000000D+01  0.9132917523D+00
 D   1 1.00       0.000000000000
      0.3390000000D+00  0.1000000000D+01
 F   1 1.00       0.000000000000
      0.7060000000D+00  0.1000000000D+01
 ****
      5 0
 S   7 1.00       0.000000000000
      0.6950799094D+05  0.5145738965D-03
      0.1042615688D+05  0.3978134481D-02
      0.2373233406D+04  0.2045617867D-01
      0.6715642007D+03  0.8014810289D-01
      0.2184199979D+03  0.2345477032D+00
      0.7757224971D+02  0.4454336858D+00
      0.2888881528D+02  0.3546684250D+00
 S   3 1.00       0.000000000000
      0.1271052718D+03  0.1129368805D+00
      0.3933958296D+02  0.4837351421D+00
      0.7674067999D+01 -0.1229229739D+01
 S   2 1.00       0.000000000000
      0.3874562763D+01  0.6729682164D+00
      0.1838583257D+01  0.3495605141D+00
 S   1 1.00       0.000000000000
      0.5022905754D+00  0.1000000000D+01
 S   1 1.00       0.000000000000
      0.1796272342D+00  0.1000000000D+01
 P   5 1.00       0.000000000000
      0.6665042328D+03  0.3350250820D-02
      0.1576424169D+03  0.2676397041D-01
      0.5026252098D+02  0.1236268236D+00
      0.1853607811D+02  0.3584578792D+00
      0.7294053278D+01  0.6167729635D+00
 P   1 1.00       0.000000000000
      0.2943324899D+01  0.1000000000D+01
 P   1 1.00       0.000000000000
      0.1040497082D+01  0.1000000000D+01
 P   1 1.00       0.000000000000
      0.3845641508D+00  0.1000000000D+01
 P   1 1.00       0.000000000000
      0.1306964273D+00  0.1000000000D+01
 D   2 1.00       0.000000000000
      0.4610000000D+01  0.1826583505D+00
      0.1011000000D+01  0.9132917523D+00
 D   1 1.00       0.000000000000
      0.3390000000D+00  0.1000000000D+01
 F   1 1.00       0.000000000000
      0.7060000000D+00  0.1000000000D+01
 ****
      6 0
 S   3 1.00       0.000000000000
      0.1746696550D+03  0.2587000790D-02
      0.1269576800D+02  0.6231301902D-01
      0.2917834000D+01 -0.1042158318D+01
 S   1 1.00       0.000000000000
      0.6708400000D+00  0.1000000000D+01
 S   1 1.00       0.000000000000
      0.2991120000D+00  0.1000000000D+01
 S   1 1.00       0.000000000000
      0.1314020000D+00  0.1000000000D+01
 P   3 1.00       0.000000000000
      0.1988722100D+02  0.2334600819D-01
      0.3776172000D+01 -0.2246210788D+00
      0.1211516000D+01  0.1137596399D+01
 P   1 1.00       0.000000000000
      0.5384990000D+00  0.1000000000D+01
 P   1 1.00       0.000000000000
      0.2295750000D+00  0.1000000000D+01
 P   1 1.00       0.000000000000
      0.9510300000D-01  0.1000000000D+01
 D   1 1.00       0.000000000000
      0.1450900000D+01  0.1000000000D+01
 D   1 1.00       0.000000000000
      0.4385000000D+00  0.1000000000D+01
 D   1 1.00       0.000000000000
      0.1325000000D+00  0.1000000000D+01
 F   1 1.00       0.000000000000
      0.9305000000D+00  0.1000000000D+01
 ****
      7 0
 S   3 1.00       0.000000000000
      0.1746696550D+03  0.2587000790D-02
      0.1269576800D+02  0.6231301902D-01
      0.2917834000D+01 -0.1042158318D+01
 S   1 1.00       0.000000000000
      0.6708400000D+00  0.1000000000D+01
 S   1 1.00       0.000000000000
      0.2991120000D+00  0.1000000000D+01
 S   1 1.00       0.000000000000
      0.1314020000D+00  0.1000000000D+01
 P   3 1.00       0.000000000000
      0.1988722100D+02  0.2334600819D-01
      0.3776172000D+01 -0.2246210788D+00
      0.1211516000D+01  0.1137596399D+01
 P   1 1.00       0.000000000000
      0.5384990000D+00  0.1000000000D+01
 P   1 1.00       0.000000000000
      0.2295750000D+00  0.1000000000D+01
 P   1 1.00       0.000000000000
      0.9510300000D-01  0.1000000000D+01
 D   1 1.00       0.000000000000
      0.1450900000D+01  0.1000000000D+01
 D   1 1.00       0.000000000000
      0.4385000000D+00  0.1000000000D+01
 D   1 1.00       0.000000000000
      0.1325000000D+00  0.1000000000D+01
 F   1 1.00       0.000000000000
      0.9305000000D+00  0.1000000000D+01
 ****

 AO basis set (Overlap normalization):
 Atom U1       Shell     1 S   3     bf    1 -     1          0.000000000000          0.000000000000          0.495434124017
      0.1209808200D+05  0.2884168448D-01
      0.1833757300D+04  0.2180092033D+00
      0.3516863200D+03  0.8395192276D+00
 Atom U1       Shell     2 S   3     bf    2 -     2          0.000000000000          0.000000000000          0.495434124017
      0.6090582200D+02  0.9338504807D-01
      0.3551508600D+02 -0.4593840999D+00
      0.2089122700D+02  0.1355508280D+01
 Atom U1       Shell     3 S   1     bf    3 -     3          0.000000000000          0.000000000000          0.495434124017
      0.1043142600D+03  0.1000000000D+01
 Atom U1       Shell     4 S   1     bf    4 -     4          0.000000000000          0.000000000000          0.495434124017
      0.1018464700D+02  0.1000000000D+01
 Atom U1       Shell     5 S   1     bf    5 -     5          0.000000000000          0.000000000000          0.495434124017
      0.2851851000D+01  0.1000000000D+01
 Atom U1       Shell     6 S   1     bf    6 -     6          0.000000000000          0.000000000000          0.495434124017
      0.1531616000D+01  0.1000000000D+01
 Atom U1       Shell     7 S   1     bf    7 -     7          0.000000000000          0.000000000000          0.495434124017
      0.6162030000D+00  0.1000000000D+01
 Atom U1       Shell     8 S   1     bf    8 -     8          0.000000000000          0.000000000000          0.495434124017
      0.2794940000D+00  0.1000000000D+01
 Atom U1       Shell     9 S   1     bf    9 -     9          0.000000000000          0.000000000000          0.495434124017
      0.5725300000D-01  0.1000000000D+01
 Atom U1       Shell    10 S   1     bf   10 -    10          0.000000000000          0.000000000000          0.495434124017
      0.2344300000D-01  0.1000000000D+01
 Atom U1       Shell    11 P   5     bf   11 -    13          0.000000000000          0.000000000000          0.495434124017
      0.2906845100D+04  0.2490724940D-02
      0.6944005300D+03  0.2071830291D-01
      0.2246347900D+03  0.9662880620D-01
      0.8052052600D+02  0.3141426831D+00
      0.2408021100D+02  0.7137059101D+00
 Atom U1       Shell    12 P   1     bf   14 -    16          0.000000000000          0.000000000000          0.495434124017
      0.1407758000D+02  0.1000000000D+01
 Atom U1       Shell    13 P   1     bf   17 -    19          0.000000000000          0.000000000000          0.495434124017
      0.8265846000D+01  0.1000000000D+01
 Atom U1       Shell    14 P   1     bf   20 -    22          0.000000000000          0.000000000000          0.495434124017
      0.3423607000D+01  0.1000000000D+01
 Atom U1       Shell    15 P   1     bf   23 -    25          0.000000000000          0.000000000000          0.495434124017
      0.1708417000D+01  0.1000000000D+01
 Atom U1       Shell    16 P   1     bf   26 -    28          0.000000000000          0.000000000000          0.495434124017
      0.6550460000D+00  0.1000000000D+01
 Atom U1       Shell    17 P   1     bf   29 -    31          0.000000000000          0.000000000000          0.495434124017
      0.2837550000D+00  0.1000000000D+01
 Atom U1       Shell    18 P   1     bf   32 -    34          0.000000000000          0.000000000000          0.495434124017
      0.1018140000D+00  0.1000000000D+01
 Atom U1       Shell    19 P   1     bf   35 -    37          0.000000000000          0.000000000000          0.495434124017
      0.3053500000D-01  0.1000000000D+01
 Atom U1       Shell    20 D   6     bf   38 -    42          0.000000000000          0.000000000000          0.495434124017
      0.4490195300D+03  0.1244413406D-03
      0.1563569500D+03  0.8014022332D-03
      0.6024243900D+02  0.4422645243D-02
      0.1777231700D+02  0.6317886860D-01
      0.1045430400D+02 -0.2224463627D+00
      0.3583433000D+01  0.1107027677D+01
 Atom U1       Shell    21 D   1     bf   43 -    47          0.000000000000          0.000000000000          0.495434124017
      0.1763724000D+01  0.1000000000D+01
 Atom U1       Shell    22 D   1     bf   48 -    52          0.000000000000          0.000000000000          0.495434124017
      0.7840300000D+00  0.1000000000D+01
 Atom U1       Shell    23 D   1     bf   53 -    57          0.000000000000          0.000000000000          0.495434124017
      0.2761270000D+00  0.1000000000D+01
 Atom U1       Shell    24 D   1     bf   58 -    62          0.000000000000          0.000000000000          0.495434124017
      0.8698000000D-01  0.1000000000D+01
 Atom U1       Shell    25 F   5     bf   63 -    69          0.000000000000          0.000000000000          0.495434124017
      0.1052879300D+03  0.5015876177D-03
      0.3510118100D+02  0.5077474656D-02
      0.1456413800D+02  0.2035609748D-01
      0.4651885000D+01  0.3012803625D+00
      0.2255973000D+01  0.7475437460D+00
 Atom U1       Shell    26 F   1     bf   70 -    76          0.000000000000          0.000000000000          0.495434124017
      0.1010274000D+01  0.1000000000D+01
 Atom U1       Shell    27 F   1     bf   77 -    83          0.000000000000          0.000000000000          0.495434124017
      0.4116800000D+00  0.1000000000D+01
 Atom U1       Shell    28 F   1     bf   84 -    90          0.000000000000          0.000000000000          0.495434124017
      0.1441200000D+00  0.1000000000D+01
 Atom U1       Shell    29 G   4     bf   91 -    99          0.000000000000          0.000000000000          0.495434124017
      0.1052879300D+03  0.1132460043D-02
      0.3510118100D+02  0.1513528715D-01
      0.1456413800D+02  0.1648266662D+00
      0.4651885000D+01  0.9155402153D+00
 Atom U1       Shell    30 G   1     bf  100 -   108          0.000000000000          0.000000000000          0.495434124017
      0.2255973000D+01  0.1000000000D+01
 Atom U1       Shell    31 G   1     bf  109 -   117          0.000000000000          0.000000000000          0.495434124017
      0.1010274000D+01  0.1000000000D+01
 Atom O2       Shell    32 S   6     bf  118 -   118         -3.260143631203          0.000000000000          0.158067208218
      0.2703238263D+05  0.5722733521D-03
      0.4052387139D+04  0.4435323349D-02
      0.9223272271D+03  0.2302010771D-01
      0.2612407099D+03  0.9282249067D-01
      0.8535464135D+02  0.2937850001D+00
      0.3103503524D+02  0.6740160450D+00
 Atom O2       Shell    33 S   2     bf  119 -   119         -3.260143631203          0.000000000000          0.158067208218
      0.1226086073D+02  0.6383993703D+00
      0.4998707601D+01  0.3953458713D+00
 Atom O2       Shell    34 S   1     bf  120 -   120         -3.260143631203          0.000000000000          0.158067208218
      0.1170310816D+01  0.1000000000D+01
 Atom O2       Shell    35 S   1     bf  121 -   121         -3.260143631203          0.000000000000          0.158067208218
      0.4647474099D+00  0.1000000000D+01
 Atom O2       Shell    36 S   1     bf  122 -   122         -3.260143631203          0.000000000000          0.158067208218
      0.1850453636D+00  0.1000000000D+01
 Atom O2       Shell    37 P   4     bf  123 -   125         -3.260143631203          0.000000000000          0.158067208218
      0.6327495480D+02  0.1201833222D-01
      0.1462704938D+02  0.8300542179D-01
      0.4450122346D+01  0.3199174393D+00
      0.1527579965D+01  0.7071554292D+00
 Atom O2       Shell    38 P   1     bf  126 -   128         -3.260143631203          0.000000000000          0.158067208218
      0.5293511794D+00  0.1000000000D+01
 Atom O2       Shell    39 P   1     bf  129 -   131         -3.260143631203          0.000000000000          0.158067208218
      0.1747842127D+00  0.1000000000D+01
 Atom O2       Shell    40 D   1     bf  132 -   136         -3.260143631203          0.000000000000          0.158067208218
      0.2314000000D+01  0.1000000000D+01
 Atom O2       Shell    41 D   1     bf  137 -   141         -3.260143631203          0.000000000000          0.158067208218
      0.6450000000D+00  0.1000000000D+01
 Atom O2       Shell    42 F   1     bf  142 -   148         -3.260143631203          0.000000000000          0.158067208218
      0.1428000000D+01  0.1000000000D+01
 Atom O3       Shell    43 S   6     bf  149 -   149          3.260143631203         -0.000000000000          0.158067208218
      0.2703238263D+05  0.5722733521D-03
      0.4052387139D+04  0.4435323349D-02
      0.9223272271D+03  0.2302010771D-01
      0.2612407099D+03  0.9282249067D-01
      0.8535464135D+02  0.2937850001D+00
      0.3103503524D+02  0.6740160450D+00
 Atom O3       Shell    44 S   2     bf  150 -   150          3.260143631203         -0.000000000000          0.158067208218
      0.1226086073D+02  0.6383993703D+00
      0.4998707601D+01  0.3953458713D+00
 Atom O3       Shell    45 S   1     bf  151 -   151          3.260143631203         -0.000000000000          0.158067208218
      0.1170310816D+01  0.1000000000D+01
 Atom O3       Shell    46 S   1     bf  152 -   152          3.260143631203         -0.000000000000          0.158067208218
      0.4647474099D+00  0.1000000000D+01
 Atom O3       Shell    47 S   1     bf  153 -   153          3.260143631203         -0.000000000000          0.158067208218
      0.1850453636D+00  0.1000000000D+01
 Atom O3       Shell    48 P   4     bf  154 -   156          3.260143631203         -0.000000000000          0.158067208218
      0.6327495480D+02  0.1201833222D-01
      0.1462704938D+02  0.8300542179D-01
      0.4450122346D+01  0.3199174393D+00
      0.1527579965D+01  0.7071554292D+00
 Atom O3       Shell    49 P   1     bf  157 -   159          3.260143631203         -0.000000000000          0.158067208218
      0.5293511794D+00  0.1000000000D+01
 Atom O3       Shell    50 P   1     bf  160 -   162          3.260143631203         -0.000000000000          0.158067208218
      0.1747842127D+00  0.1000000000D+01
 Atom O3       Shell    51 D   1     bf  163 -   167          3.260143631203         -0.000000000000          0.158067208218
      0.2314000000D+01  0.1000000000D+01
 Atom O3       Shell    52 D   1     bf  168 -   172          3.260143631203         -0.000000000000          0.158067208218
      0.6450000000D+00  0.1000000000D+01
 Atom O3       Shell    53 F   1     bf  173 -   179          3.260143631203         -0.000000000000          0.158067208218
      0.1428000000D+01  0.1000000000D+01
 Atom Cl4      Shell    54 S   7     bf  180 -   180          0.000000000000          3.924202948047          3.186226764811
      0.6950799094D+05  0.5145738965D-03
      0.1042615688D+05  0.3978134481D-02
      0.2373233406D+04  0.2045617867D-01
      0.6715642007D+03  0.8014810289D-01
      0.2184199979D+03  0.2345477032D+00
      0.7757224971D+02  0.4454336858D+00
      0.2888881528D+02  0.3546684250D+00
 Atom Cl4      Shell    55 S   3     bf  181 -   181          0.000000000000          3.924202948047          3.186226764811
      0.1271052718D+03  0.1129368805D+00
      0.3933958296D+02  0.4837351421D+00
      0.7674067999D+01 -0.1229229739D+01
 Atom Cl4      Shell    56 S   2     bf  182 -   182          0.000000000000          3.924202948047          3.186226764811
      0.3874562763D+01  0.6729682164D+00
      0.1838583257D+01  0.3495605141D+00
 Atom Cl4      Shell    57 S   1     bf  183 -   183          0.000000000000          3.924202948047          3.186226764811
      0.5022905754D+00  0.1000000000D+01
 Atom Cl4      Shell    58 S   1     bf  184 -   184          0.000000000000          3.924202948047          3.186226764811
      0.1796272342D+00  0.1000000000D+01
 Atom Cl4      Shell    59 P   5     bf  185 -   187          0.000000000000          3.924202948047          3.186226764811
      0.6665042328D+03  0.3350250820D-02
      0.1576424169D+03  0.2676397041D-01
      0.5026252098D+02  0.1236268236D+00
      0.1853607811D+02  0.3584578792D+00
      0.7294053278D+01  0.6167729635D+00
 Atom Cl4      Shell    60 P   1     bf  188 -   190          0.000000000000          3.924202948047          3.186226764811
      0.2943324899D+01  0.1000000000D+01
 Atom Cl4      Shell    61 P   1     bf  191 -   193          0.000000000000          3.924202948047          3.186226764811
      0.1040497082D+01  0.1000000000D+01
 Atom Cl4      Shell    62 P   1     bf  194 -   196          0.000000000000          3.924202948047          3.186226764811
      0.3845641508D+00  0.1000000000D+01
 Atom Cl4      Shell    63 P   1     bf  197 -   199          0.000000000000          3.924202948047          3.186226764811
      0.1306964273D+00  0.1000000000D+01
 Atom Cl4      Shell    64 D   2     bf  200 -   204          0.000000000000          3.924202948047          3.186226764811
      0.4610000000D+01  0.1826583505D+00
      0.1011000000D+01  0.9132917523D+00
 Atom Cl4      Shell    65 D   1     bf  205 -   209          0.000000000000          3.924202948047          3.186226764811
      0.3390000000D+00  0.1000000000D+01
 Atom Cl4      Shell    66 F   1     bf  210 -   216          0.000000000000          3.924202948047          3.186226764811
      0.7060000000D+00  0.1000000000D+01
 Atom Cl5      Shell    67 S   7     bf  217 -   217         -0.000000000000         -3.924202948047          3.186226764811
      0.6950799094D+05  0.5145738965D-03
      0.1042615688D+05  0.3978134481D-02
      0.2373233406D+04  0.2045617867D-01
      0.6715642007D+03  0.8014810289D-01
      0.2184199979D+03  0.2345477032D+00
      0.7757224971D+02  0.4454336858D+00
      0.2888881528D+02  0.3546684250D+00
 Atom Cl5      Shell    68 S   3     bf  218 -   218         -0.000000000000         -3.924202948047          3.186226764811
      0.1271052718D+03  0.1129368805D+00
      0.3933958296D+02  0.4837351421D+00
      0.7674067999D+01 -0.1229229739D+01
 Atom Cl5      Shell    69 S   2     bf  219 -   219         -0.000000000000         -3.924202948047          3.186226764811
      0.3874562763D+01  0.6729682164D+00
      0.1838583257D+01  0.3495605141D+00
 Atom Cl5      Shell    70 S   1     bf  220 -   220         -0.000000000000         -3.924202948047          3.186226764811
      0.5022905754D+00  0.1000000000D+01
 Atom Cl5      Shell    71 S   1     bf  221 -   221         -0.000000000000         -3.924202948047          3.186226764811
      0.1796272342D+00  0.1000000000D+01
 Atom Cl5      Shell    72 P   5     bf  222 -   224         -0.000000000000         -3.924202948047          3.186226764811
      0.6665042328D+03  0.3350250820D-02
      0.1576424169D+03  0.2676397041D-01
      0.5026252098D+02  0.1236268236D+00
      0.1853607811D+02  0.3584578792D+00
      0.7294053278D+01  0.6167729635D+00
 Atom Cl5      Shell    73 P   1     bf  225 -   227         -0.000000000000         -3.924202948047          3.186226764811
      0.2943324899D+01  0.1000000000D+01
 Atom Cl5      Shell    74 P   1     bf  228 -   230         -0.000000000000         -3.924202948047          3.186226764811
      0.1040497082D+01  0.1000000000D+01
 Atom Cl5      Shell    75 P   1     bf  231 -   233         -0.000000000000         -3.924202948047          3.186226764811
      0.3845641508D+00  0.1000000000D+01
 Atom Cl5      Shell    76 P   1     bf  234 -   236         -0.000000000000         -3.924202948047          3.186226764811
      0.1306964273D+00  0.1000000000D+01
 Atom Cl5      Shell    77 D   2     bf  237 -   241         -0.000000000000         -3.924202948047          3.186226764811
      0.4610000000D+01  0.1826583505D+00
      0.1011000000D+01  0.9132917523D+00
 Atom Cl5      Shell    78 D   1     bf  242 -   246         -0.000000000000         -3.924202948047          3.186226764811
      0.3390000000D+00  0.1000000000D+01
 Atom Cl5      Shell    79 F   1     bf  247 -   253         -0.000000000000         -3.924202948047          3.186226764811
      0.7060000000D+00  0.1000000000D+01
 Atom Ar6      Shell    80 S   3     bf  254 -   254          0.000000000000         -3.713739449144         -4.345575687350
      0.1746696550D+03  0.2587000790D-02
      0.1269576800D+02  0.6231301902D-01
      0.2917834000D+01 -0.1042158318D+01
 Atom Ar6      Shell    81 S   1     bf  255 -   255          0.000000000000         -3.713739449144         -4.345575687350
      0.6708400000D+00  0.1000000000D+01
 Atom Ar6      Shell    82 S   1     bf  256 -   256          0.000000000000         -3.713739449144         -4.345575687350
      0.2991120000D+00  0.1000000000D+01
 Atom Ar6      Shell    83 S   1     bf  257 -   257          0.000000000000         -3.713739449144         -4.345575687350
      0.1314020000D+00  0.1000000000D+01
 Atom Ar6      Shell    84 P   3     bf  258 -   260          0.000000000000         -3.713739449144         -4.345575687350
      0.1988722100D+02  0.2334600819D-01
      0.3776172000D+01 -0.2246210788D+00
      0.1211516000D+01  0.1137596399D+01
 Atom Ar6      Shell    85 P   1     bf  261 -   263          0.000000000000         -3.713739449144         -4.345575687350
      0.5384990000D+00  0.1000000000D+01
 Atom Ar6      Shell    86 P   1     bf  264 -   266          0.000000000000         -3.713739449144         -4.345575687350
      0.2295750000D+00  0.1000000000D+01
 Atom Ar6      Shell    87 P   1     bf  267 -   269          0.000000000000         -3.713739449144         -4.345575687350
      0.9510300000D-01  0.1000000000D+01
 Atom Ar6      Shell    88 D   1     bf  270 -   274          0.000000000000         -3.713739449144         -4.345575687350
      0.1450900000D+01  0.1000000000D+01
 Atom Ar6      Shell    89 D   1     bf  275 -   279          0.000000000000         -3.713739449144         -4.345575687350
      0.4385000000D+00  0.1000000000D+01
 Atom Ar6      Shell    90 D   1     bf  280 -   284          0.000000000000         -3.713739449144         -4.345575687350
      0.1325000000D+00  0.1000000000D+01
 Atom Ar6      Shell    91 F   1     bf  285 -   291          0.000000000000         -3.713739449144         -4.345575687350
      0.9305000000D+00  0.1000000000D+01
 Atom Ar7      Shell    92 S   3     bf  292 -   292          0.000000000000          3.713739449144         -4.345575687350
      0.1746696550D+03  0.2587000790D-02
      0.1269576800D+02  0.6231301902D-01
      0.2917834000D+01 -0.1042158318D+01
 Atom Ar7      Shell    93 S   1     bf  293 -   293          0.000000000000          3.713739449144         -4.345575687350
      0.6708400000D+00  0.1000000000D+01
 Atom Ar7      Shell    94 S   1     bf  294 -   294          0.000000000000          3.713739449144         -4.345575687350
      0.2991120000D+00  0.1000000000D+01
 Atom Ar7      Shell    95 S   1     bf  295 -   295          0.000000000000          3.713739449144         -4.345575687350
      0.1314020000D+00  0.1000000000D+01
 Atom Ar7      Shell    96 P   3     bf  296 -   298          0.000000000000          3.713739449144         -4.345575687350
      0.1988722100D+02  0.2334600819D-01
      0.3776172000D+01 -0.2246210788D+00
      0.1211516000D+01  0.1137596399D+01
 Atom Ar7      Shell    97 P   1     bf  299 -   301          0.000000000000          3.713739449144         -4.345575687350
      0.5384990000D+00  0.1000000000D+01
 Atom Ar7      Shell    98 P   1     bf  302 -   304          0.000000000000          3.713739449144         -4.345575687350
      0.2295750000D+00  0.1000000000D+01
 Atom Ar7      Shell    99 P   1     bf  305 -   307          0.000000000000          3.713739449144         -4.345575687350
      0.9510300000D-01  0.1000000000D+01
 Atom Ar7      Shell   100 D   1     bf  308 -   312          0.000000000000          3.713739449144         -4.345575687350
      0.1450900000D+01  0.1000000000D+01
 Atom Ar7      Shell   101 D   1     bf  313 -   317          0.000000000000          3.713739449144         -4.345575687350
      0.4385000000D+00  0.1000000000D+01
 Atom Ar7      Shell   102 D   1     bf  318 -   322          0.000000000000          3.713739449144         -4.345575687350
      0.1325000000D+00  0.1000000000D+01
 Atom Ar7      Shell   103 F   1     bf  323 -   329          0.000000000000          3.713739449144         -4.345575687350
      0.9305000000D+00  0.1000000000D+01
 Effective core potential in the form of general ECP input:
      1 0
 U1-ECP   5 60
 H component
  1
  2        1.0000000        0.00000000    0.00000000
 S-H projection
  1
  2       16.4140387      536.51662778    0.00000000
 P-H projection
  1
  2        9.0605561      169.54492465    0.00000000
 D-H projection
  1
  2        8.8318320      142.61559837    0.00000000
 F-H projection
  1
  2        7.0185163       60.39307602    0.00000000
 G-H projection
  1
  2       12.8040884      -60.12998958    0.00000000
      6 0
 Ar6-ECP   4 10
 G component
  1
  2        1.0000000        0.00000000    0.00000000
 S-G projection
  2
  2       10.2617210       68.66778801    0.00000000
  2        3.9527250       24.04276629    0.00000000
 P-G projection
  2
  2        5.3927140       27.73076331    0.00000000
  2        2.6999670        4.04545904    0.00000000
 D-G projection
  2
  2        8.0862350       -8.13747696    0.00000000
  2        4.0166320       -1.66452808    0.00000000
 F-G projection
  1
  2        5.2084590       -3.40009845    0.00000000
      7 0
 Ar7-ECP   4 10
 G component
  1
  2        1.0000000        0.00000000    0.00000000
 S-G projection
  2
  2       10.2617210       68.66778801    0.00000000
  2        3.9527250       24.04276629    0.00000000
 P-G projection
  2
  2        5.3927140       27.73076331    0.00000000
  2        2.6999670        4.04545904    0.00000000
 D-G projection
  2
  2        8.0862350       -8.13747696    0.00000000
  2        4.0166320       -1.66452808    0.00000000
 F-G projection
  1
  2        5.2084590       -3.40009845    0.00000000
 
 There are   148 symmetry adapted cartesian basis functions of A1  symmetry.
 There are    56 symmetry adapted cartesian basis functions of A2  symmetry.
 There are    87 symmetry adapted cartesian basis functions of B1  symmetry.
 There are   105 symmetry adapted cartesian basis functions of B2  symmetry.
 There are   117 symmetry adapted basis functions of A1  symmetry.
 There are    50 symmetry adapted basis functions of A2  symmetry.
 There are    74 symmetry adapted basis functions of B1  symmetry.
 There are    88 symmetry adapted basis functions of B2  symmetry.
   329 basis functions,   627 primitive gaussians,   396 cartesian basis functions
    49 alpha electrons       49 beta electrons
       nuclear repulsion energy       715.4848488764 Hartrees.
 IExCor= 1009 DFT=T Ex+Corr=PBE1PBE ExCW=0 ScaHFX=  0.250000
 ScaDFX=  0.750000  0.750000  1.000000  1.000000 ScalE2=  1.000000  1.000000
 IRadAn=      5 IRanWt=     -1 IRanGd=            0 ICorTp=0 IEmpDi=141
 NAtoms=    7 NActive=    7 NUniq=    4 SFac= 3.06D+00 NAtFMM=   60 NAOKFM=F Big=F
 Integral buffers will be    131072 words long.
 Raffenetti 2 integral format.
 Two-electron integral symmetry is turned on.
 R6Disp:  Grimme-D3(BJ) Dispersion energy=       -0.0098693721 Hartrees.
 Nuclear repulsion after empirical dispersion term =      715.4749795043 Hartrees.
 Leave Link  301 at Sun Jan 22 19:15:54 2023, MaxMem=  1048576000 cpu:               0.3 elap:               0.1
 (Enter /home/pcmt/gaussian/g16.C.01/g16/l302.exe)
 NPDir=0 NMtPBC=     1 NCelOv=     1 NCel=       1 NClECP=     1 NCelD=      1
         NCelK=      1 NCelE2=     1 NClLst=     1 CellRange=     0.0.
 One-electron integrals computed using PRISM.
 One-electron integral symmetry used in STVInt
   4 Symmetry operations used in ECPInt.
 ECPInt:  NShTT=    5356 NPrTT=   15928 LenC2=    5132 LenP2D=   11834.
 LDataN:  DoStor=T MaxTD1= 9 Len=  602
 NBasis=   329 RedAO= T EigKep=  6.55D-04  NBF=   117    50    74    88
 NBsUse=   329 1.00D-06 EigRej= -1.00D+00 NBFU=   117    50    74    88
 Precomputing XC quadrature grid using
 IXCGrd= 4 IRadAn=           5 IRanWt=          -1 IRanGd=           0 AccXCQ= 0.00D+00.
 Defaulting to unpruned grid for atomic number  92.
 Generated NRdTot=       0 NPtTot=           0 NUsed=           0 NTot=          32
 NSgBfM=   391   391   391   391   391 MxSgAt=     7 MxSgA2=     7.
 Leave Link  302 at Sun Jan 22 19:15:56 2023, MaxMem=  1048576000 cpu:               5.4 elap:               2.0
 (Enter /home/pcmt/gaussian/g16.C.01/g16/l303.exe)
 DipDrv:  MaxL=1.
 Leave Link  303 at Sun Jan 22 19:15:56 2023, MaxMem=  1048576000 cpu:               0.2 elap:               0.1
 (Enter /home/pcmt/gaussian/g16.C.01/g16/l401.exe)
 Initial guess from the checkpoint file:  "gs-uo2_cl2_2ar.pbe0-d3.freq.chk"
 B after Tr=    -0.000000   -0.000000   -0.000000
         Rot=    1.000000    0.000000   -0.000000   -0.000000 Ang=   0.00 deg.
 Guess basis will be translated and rotated to current coordinates.
 JPrj=2 DoOrth=T DoCkMO=T.
 Initial guess orbital symmetries:
       Occupied  (A1) (B2) (B1) (A1) (A1) (A1) (B2) (B2) (A1) (B1)
                 (A1) (B2) (B2) (A1) (B1) (A2) (A1) (B2) (A2) (B1)
                 (A1) (A1) (B1) (A1) (B2) (A1) (B2) (A1) (A1) (B2)
                 (B1) (A1) (B2) (A1) (B1) (A2) (B2) (A2) (B1) (A1)
                 (B2) (A1) (B1) (A1) (B2) (A1) (B2) (A2) (B1)
       Virtual   (A1) (B2) (B1) (A2) (A1) (B2) (A1) (A1) (B2) (A1)
                 (B1) (B2) (B1) (A1) (A2) (B1) (B2) (A1) (B1) (A1)
                 (A2) (B1) (A1) (A1) (B1) (B2) (B2) (A2) (B2) (A1)
                 (A1) (A2) (B2) (A1) (B1) (B1) (A1) (B2) (A2) (B2)
                 (A1) (B2) (A2) (B2) (B1) (A1) (B1) (A2) (A1) (B2)
                 (A1) (B2) (B1) (A1) (B1) (B2) (A2) (A1) (A1) (B2)
                 (A1) (B1) (B1) (A2) (B2) (A1) (B1) (A1) (A1) (A2)
                 (A1) (B2) (B1) (A1) (B2) (A2) (B2) (A1) (B2) (A2)
                 (B1) (A1) (B2) (B1) (A2) (B2) (A1) (B2) (B1) (A1)
                 (A1) (B2) (A1) (B2) (A1) (A1) (B1) (A2) (B1) (B2)
                 (A1) (B2) (B1) (A2) (A1) (B1) (A2) (B2) (A1) (A1)
                 (A2) (A2) (B1) (B2) (A1) (B1) (B2) (A1) (A1) (B1)
                 (B2) (B2) (A1) (B1) (A2) (B2) (B2) (B1) (A1) (A2)
                 (B2) (A2) (A1) (B1) (A1) (B1) (B2) (B2) (A1) (A2)
                 (A1) (B2) (B1) (A1) (B1) (A1) (B2) (A2) (A1) (B2)
                 (A2) (B2) (B1) (A1) (B1) (B1) (A2) (A1) (B2) (A2)
                 (A1) (B2) (A2) (B1) (A1) (B2) (A2) (B1) (B2) (A2)
                 (A1) (A1) (B1) (A2) (B2) (B1) (A1) (A1) (B2) (A1)
                 (B2) (A1) (B2) (B1) (A1) (A2) (A1) (B2) (B1) (A2)
                 (B1) (A1) (B2) (B2) (A1) (A1) (B1) (B1) (B1) (A2)
                 (A1) (B2) (A1) (B2) (A1) (B2) (B1) (A2) (A2) (B2)
                 (A1) (B1) (B1) (A2) (A1) (A1) (B2) (B1) (A1) (B2)
                 (A2) (B1) (A1) (B2) (B1) (A2) (A1) (A2) (A1) (B1)
                 (B2) (A1) (B2) (B1) (A1) (B2) (A1) (B1) (A2) (A1)
                 (B1) (A1) (A2) (B1) (B2) (A1) (A2) (A1) (B1) (B2)
                 (B2) (A1) (A2) (B1) (B2) (A1) (A1) (B2) (A2) (B1)
                 (A1) (A1) (B2) (A1) (B2) (B1) (B2) (A1) (A1) (A1)
                 (B1) (A1) (B2) (B1) (A1) (A1) (B2) (B1) (A1) (A1)
 The electronic state of the initial guess is 1-A1.
 Leave Link  401 at Sun Jan 22 19:15:56 2023, MaxMem=  1048576000 cpu:               1.2 elap:               0.3
 (Enter /home/pcmt/gaussian/g16.C.01/g16/l502.exe)
 Integral symmetry usage will be decided dynamically.
 Closed shell SCF:
 Using DIIS extrapolation, IDIIS=  1040.
 NGot=  1048576000 LenX=  1048254116 LenY=  1048096859
 Requested convergence on RMS density matrix=1.00D-08 within 100 cycles.
 Requested convergence on MAX density matrix=1.00D-06.
 Requested convergence on             energy=1.00D-06.
 No special actions if energy rises.
 Fock matrices will be formed incrementally for  20 cycles.

 Cycle   1  Pass 1  IDiag  1:
 FoFJK:  IHMeth= 1 ICntrl=       0 DoSepK=F KAlg= 0 I1Cent=           0 FoldK=F
 IRaf= 930000000 NMat=       1 IRICut=       1 DoRegI=T DoRafI=F ISym2E= 1 IDoP0=0 IntGTp=1.
 FoFCou: FMM=F IPFlag=           0 FMFlag=      100000 FMFlg1=           0
         NFxFlg=           0 DoJE=F BraDBF=F KetDBF=F FulRan=T
         wScrn=  0.000000 ICntrl=         0 IOpCl=  0 I1Cent=           0 NGrid=           0
         NMat0=    1 NMatS0=      1 NMatT0=    0 NMatD0=    1 NMtDS0=    0 NMtDT0=    0
 Petite list used in FoFCou.
 Defaulting to unpruned grid for atomic number  92.
 Defaulting to unpruned grid for atomic number  92.
 Defaulting to unpruned grid for atomic number  92.
 Defaulting to unpruned grid for atomic number  92.
 E= -1589.91830906293    
 DIIS: error= 4.69D-08 at cycle   1 NSaved=   1.
 NSaved= 1 IEnMin= 1 EnMin= -1589.91830906293     IErMin= 1 ErrMin= 4.69D-08
 ErrMax= 4.69D-08  0.00D+00 EMaxC= 1.00D-01 BMatC= 7.56D-13 BMatP= 7.56D-13
 IDIUse=1 WtCom= 1.00D+00 WtEn= 0.00D+00
 Coeff-Com:  0.100D+01
 Coeff:      0.100D+01
 Gap=     0.171 Goal=   None    Shift=    0.000
 RMSDP=4.96D-09 MaxDP=3.44D-07              OVMax= 7.25D-07

 SCF Done:  E(RPBE1PBE) =  -1589.91830906     A.U. after    1 cycles
            NFock=  1  Conv=0.50D-08     -V/T= 2.2880
 KE= 1.234383555116D+03 PE=-5.032132881243D+03 EE= 1.492356037560D+03
 Leave Link  502 at Sun Jan 22 19:16:03 2023, MaxMem=  1048576000 cpu:              27.8 elap:               7.2
 (Enter /home/pcmt/gaussian/g16.C.01/g16/l801.exe)
 DoSCS=F DFT=T ScalE2(SS,OS)=  1.000000  1.000000
 Range of M.O.s used for correlation:     1   329
 NBasis=   329 NAE=    49 NBE=    49 NFC=     0 NFV=     0
 NROrb=    329 NOA=    49 NOB=    49 NVA=   280 NVB=   280

 **** Warning!!: The largest alpha MO coefficient is  0.10463010D+02

 Leave Link  801 at Sun Jan 22 19:16:03 2023, MaxMem=  1048576000 cpu:               0.1 elap:               0.1
 (Enter /home/pcmt/gaussian/g16.C.01/g16/l1101.exe)
 Using compressed storage, NAtomX=     7.
 Will process      8 centers per pass.
   4 Symmetry operations used in ECPInt.
 ECPInt:  NShTT=    5356 NPrTT=   15928 LenC2=    5132 LenP2D=   11834.
 LDataN:  DoStor=T MaxTD1=10 Len=  848
 R6Disp: Adding Grimme-D3(BJ) dispersion energy 1st derivatives to the gradient.
 Leave Link 1101 at Sun Jan 22 19:16:11 2023, MaxMem=  1048576000 cpu:              23.0 elap:               8.0
 (Enter /home/pcmt/gaussian/g16.C.01/g16/l1102.exe)
 Symmetrizing basis deriv contribution to polar:
 IMax=3 JMax=2 DiffMx= 0.00D+00
 Leave Link 1102 at Sun Jan 22 19:16:11 2023, MaxMem=  1048576000 cpu:               0.2 elap:               0.1
 (Enter /home/pcmt/gaussian/g16.C.01/g16/l1110.exe)
 Forming Gx(P) for the SCF density, NAtomX=     7.
 Integral derivatives from FoFJK, PRISM(SPDF).
 Do as many integral derivatives as possible in FoFJK.
 G2DrvN: MDV=    1048575115.
 G2DrvN: will do     8 centers at a time, making    1 passes.
 Calling FoFCou, ICntrl=  3107 FMM=F I1Cent=   0 AccDes= 0.00D+00.
 FoFJK:  IHMeth= 1 ICntrl=    3107 DoSepK=F KAlg= 0 I1Cent=           0 FoldK=F
 IRaf=         0 NMat=       1 IRICut=       1 DoRegI=T DoRafI=F ISym2E= 1 IDoP0=0 IntGTp=1.
 FoFCou: FMM=F IPFlag=           0 FMFlag=      100000 FMFlg1=           0
         NFxFlg=           0 DoJE=F BraDBF=F KetDBF=F FulRan=T
         wScrn=  0.000000 ICntrl=      3107 IOpCl=  0 I1Cent=           0 NGrid=           0
         NMat0=    1 NMatS0=      1 NMatT0=    0 NMatD0=    1 NMtDS0=    0 NMtDT0=    0
 Petite list used in FoFCou.
 Defaulting to unpruned grid for atomic number  92.
 Defaulting to unpruned grid for atomic number  92.
 Defaulting to unpruned grid for atomic number  92.
 Defaulting to unpruned grid for atomic number  92.
 End of G2Drv F.D. properties file   721 does not exist.
 End of G2Drv F.D. properties file   722 does not exist.
 End of G2Drv F.D. properties file   788 does not exist.
 Leave Link 1110 at Sun Jan 22 19:17:02 2023, MaxMem=  1048576000 cpu:             200.1 elap:              50.3
 (Enter /home/pcmt/gaussian/g16.C.01/g16/l1002.exe)
 Minotr:  Closed shell wavefunction.
          IDoAtm=1111111
          Direct CPHF calculation.
          Differentiating once with respect to electric field.
                with respect to dipole field.
          Differentiating once with respect to nuclear coordinates.
          Using symmetry in CPHF.
          Requested convergence is 1.0D-08 RMS, and 1.0D-07 maximum.
          Secondary convergence is 1.0D-12 RMS, and 1.0D-12 maximum.
          NewPWx=T KeepS1=F KeepF1=F KeepIn=T MapXYZ=F SortEE=F KeepMc=T.
 Defaulting to unpruned grid for atomic number  92.
         2122 words used for storage of precomputed grid.
 Two-electron integrals replicated using symmetry.
          MDV=    1048576000 using IRadAn=       1.
          Solving linear equations simultaneously, MaxMat=     384.
 FoF2E skips out because all densities are zero.
 CalDSu exits because no D1Ps are significant.
 FoFJK:  IHMeth= 1 ICntrl=       0 DoSepK=F KAlg= 0 I1Cent=           0 FoldK=F
 IRaf= 930000000 NMat=      12 IRICut=      30 DoRegI=T DoRafI=T ISym2E= 2 IDoP0=3 IntGTp=3.
 FoFCou: FMM=F IPFlag=           0 FMFlag=      100000 FMFlg1=           0
         NFxFlg=           0 DoJE=F BraDBF=F KetDBF=F FulRan=T
         wScrn=  0.000000 ICntrl=         0 IOpCl=  0 I1Cent=           0 NGrid=           0
         NMat0=   12 NMatS0=     12 NMatT0=    0 NMatD0=   12 NMtDS0=    0 NMtDT0=    0
 Integrals replicated using symmetry in FoFCou.
 Raff kept on since  91.13% of shell-pairs survive, threshold=   0.20 IRatSp=91.
 Defaulting to unpruned grid for atomic number  92.
 Defaulting to unpruned grid for atomic number  92.
 Defaulting to unpruned grid for atomic number  92.
 Defaulting to unpruned grid for atomic number  92.
          There are    15 degrees of freedom in the 1st order CPHF.  IDoFFX=4 NUNeed=    15.
     15 vectors produced by pass  0 Test12= 9.15D-14 6.67D-09 XBig12= 1.08D+02 4.54D+00.
 AX will form    15 AO Fock derivatives at one time.
     15 vectors produced by pass  1 Test12= 9.15D-14 6.67D-09 XBig12= 4.74D+01 1.60D+00.
     15 vectors produced by pass  2 Test12= 9.15D-14 6.67D-09 XBig12= 8.96D+00 5.69D-01.
     15 vectors produced by pass  3 Test12= 9.15D-14 6.67D-09 XBig12= 4.60D-01 1.31D-01.
     15 vectors produced by pass  4 Test12= 9.15D-14 6.67D-09 XBig12= 1.71D-02 2.63D-02.
     15 vectors produced by pass  5 Test12= 9.15D-14 6.67D-09 XBig12= 9.11D-04 6.93D-03.
     15 vectors produced by pass  6 Test12= 9.15D-14 6.67D-09 XBig12= 2.06D-05 9.22D-04.
     15 vectors produced by pass  7 Test12= 9.15D-14 6.67D-09 XBig12= 4.48D-07 1.41D-04.
     12 vectors produced by pass  8 Test12= 9.15D-14 6.67D-09 XBig12= 8.76D-09 1.69D-05.
      8 vectors produced by pass  9 Test12= 9.15D-14 6.67D-09 XBig12= 1.17D-10 2.15D-06.
      4 vectors produced by pass 10 Test12= 9.15D-14 6.67D-09 XBig12= 1.68D-12 2.84D-07.
      2 vectors produced by pass 11 Test12= 9.15D-14 6.67D-09 XBig12= 2.45D-14 4.29D-08.
 InvSVY:  IOpt=1 It=  1 EMax= 4.82D-15
 Solved reduced A of dimension   146 with    15 vectors.
 FullF1:  Do perturbations      1 to      15.
 Isotropic polarizability for W=    0.000000       94.35 Bohr**3.
 End of Minotr F.D. properties file   721 does not exist.
 End of Minotr F.D. properties file   722 does not exist.
 End of Minotr F.D. properties file   788 does not exist.
 Leave Link 1002 at Sun Jan 22 19:47:07 2023, MaxMem=  1048576000 cpu:            7097.3 elap:            1805.6
 (Enter /home/pcmt/gaussian/g16.C.01/g16/l601.exe)
 Copying SCF densities to generalized density rwf, IOpCl= 0 IROHF=0.

 **********************************************************************

            Population analysis using the SCF Density.

 **********************************************************************

 Orbital symmetries:
       Occupied  (A1) (B2) (B1) (A1) (A1) (A1) (B2) (B2) (A1) (B1)
                 (A1) (B2) (B2) (A1) (B1) (A2) (A1) (B2) (A2) (B1)
                 (A1) (A1) (B1) (A1) (B2) (A1) (B2) (A1) (A1) (B2)
                 (B1) (A1) (B2) (A1) (B1) (A2) (B2) (A2) (B1) (A1)
                 (B2) (A1) (B1) (A1) (B2) (A1) (B2) (A2) (B1)
       Virtual   (A1) (B2) (B1) (A2) (A1) (B2) (A1) (A1) (B2) (A1)
                 (B1) (B2) (B1) (A1) (A2) (B1) (B2) (A1) (B1) (A1)
                 (A2) (B1) (A1) (A1) (B1) (B2) (B2) (A2) (B2) (A1)
                 (A1) (A2) (B2) (A1) (B1) (B1) (A1) (B2) (A2) (B2)
                 (A1) (B2) (A2) (B2) (B1) (A1) (B1) (A2) (A1) (B2)
                 (A1) (B2) (B1) (A1) (B1) (B2) (A2) (A1) (A1) (B2)
                 (A1) (B1) (B1) (A2) (B2) (A1) (B1) (A1) (A1) (A2)
                 (A1) (B2) (B1) (A1) (B2) (A2) (B2) (A1) (B2) (A2)
                 (B1) (A1) (B2) (B1) (A2) (B2) (A1) (B2) (B1) (A1)
                 (A1) (B2) (A1) (B2) (A1) (A1) (B1) (A2) (B1) (B2)
                 (A1) (B2) (B1) (A2) (A1) (B1) (A2) (B2) (A1) (A1)
                 (A2) (A2) (B1) (B2) (A1) (B1) (B2) (A1) (A1) (B1)
                 (B2) (B2) (A1) (B1) (A2) (B2) (B2) (B1) (A1) (A2)
                 (B2) (A2) (A1) (B1) (A1) (B1) (B2) (B2) (A1) (A2)
                 (A1) (B2) (B1) (A1) (B1) (A1) (B2) (A2) (A1) (B2)
                 (A2) (B2) (B1) (A1) (B1) (B1) (A2) (A1) (B2) (A2)
                 (A1) (B2) (A2) (B1) (A1) (B2) (A2) (B1) (B2) (A2)
                 (A1) (A1) (B1) (A2) (B2) (B1) (A1) (A1) (B2) (A1)
                 (B2) (A1) (B2) (B1) (A1) (A2) (A1) (B2) (B1) (A2)
                 (B1) (A1) (B2) (B2) (A1) (A1) (B1) (B1) (B1) (A2)
                 (A1) (B2) (A1) (B2) (A1) (B2) (B1) (A2) (A2) (B2)
                 (A1) (B1) (B1) (A2) (A1) (A1) (B2) (B1) (A1) (B2)
                 (A2) (B1) (A1) (B2) (B1) (A2) (A1) (A2) (A1) (B1)
                 (B2) (A1) (B2) (B1) (A1) (B2) (A1) (B1) (A2) (A1)
                 (B1) (A1) (A2) (B1) (B2) (A1) (A2) (A1) (B1) (B2)
                 (B2) (A1) (A2) (B1) (B2) (A1) (A1) (B2) (A2) (B1)
                 (A1) (A1) (B2) (A1) (B2) (B1) (B2) (A1) (A1) (A1)
                 (B1) (A1) (B2) (B1) (A1) (A1) (B2) (B1) (A1) (A1)
 The electronic state is 1-A1.
 Alpha  occ. eigenvalues -- -101.67551-101.67551 -19.26724 -19.26723 -12.15814
 Alpha  occ. eigenvalues --   -9.50265  -9.50265  -7.59534  -7.59534  -7.56164
 Alpha  occ. eigenvalues --   -7.23200  -7.23200  -7.23145  -7.23145  -7.22995
 Alpha  occ. eigenvalues --   -7.22995  -3.95934  -3.95898  -3.94524  -3.94501
 Alpha  occ. eigenvalues --   -3.93815  -1.97080  -1.25341  -1.06508  -1.06359
 Alpha  occ. eigenvalues --   -1.03515  -1.01668  -0.98348  -0.79928  -0.78945
 Alpha  occ. eigenvalues --   -0.75035  -0.51184  -0.50591  -0.49927  -0.49768
 Alpha  occ. eigenvalues --   -0.49565  -0.49255  -0.45244  -0.45221  -0.43882
 Alpha  occ. eigenvalues --   -0.42829  -0.42583  -0.39160  -0.36120  -0.34954
 Alpha  occ. eigenvalues --   -0.33695  -0.32799  -0.32420  -0.31019
 Alpha virt. eigenvalues --   -0.13969  -0.13777  -0.13550  -0.13393  -0.08226
 Alpha virt. eigenvalues --   -0.07729  -0.04050  -0.00577   0.01040   0.03835
 Alpha virt. eigenvalues --    0.04071   0.04628   0.05465   0.06120   0.09866
 Alpha virt. eigenvalues --    0.11506   0.12494   0.13151   0.14087   0.14200
 Alpha virt. eigenvalues --    0.16417   0.16426   0.16543   0.17619   0.18427
 Alpha virt. eigenvalues --    0.18798   0.19360   0.20115   0.21190   0.22597
 Alpha virt. eigenvalues --    0.23035   0.23986   0.27470   0.27677   0.29821
 Alpha virt. eigenvalues --    0.30711   0.32090   0.32707   0.33535   0.34828
 Alpha virt. eigenvalues --    0.36535   0.36699   0.37462   0.38353   0.39525
 Alpha virt. eigenvalues --    0.40168   0.40566   0.41717   0.42306   0.44602
 Alpha virt. eigenvalues --    0.47508   0.48155   0.50212   0.53481   0.53987
 Alpha virt. eigenvalues --    0.54256   0.54305   0.56496   0.59627   0.60542
 Alpha virt. eigenvalues --    0.62695   0.63478   0.66486   0.67165   0.67373
 Alpha virt. eigenvalues --    0.67740   0.68981   0.70218   0.72185   0.72764
 Alpha virt. eigenvalues --    0.72977   0.73439   0.74525   0.75036   0.75134
 Alpha virt. eigenvalues --    0.75456   0.75838   0.77820   0.80849   0.81516
 Alpha virt. eigenvalues --    0.81973   0.84676   0.85518   0.95571   0.95740
 Alpha virt. eigenvalues --    0.98643   0.99623   1.01424   1.04774   1.06873
 Alpha virt. eigenvalues --    1.11544   1.15255   1.17678   1.40395   1.42952
 Alpha virt. eigenvalues --    1.44806   1.44956   1.44971   1.47691   1.47804
 Alpha virt. eigenvalues --    1.52613   1.52955   1.54761   1.59365   1.62296
 Alpha virt. eigenvalues --    1.63035   1.64161   1.65256   1.72870   1.77981
 Alpha virt. eigenvalues --    1.78893   1.81824   1.82172   1.83318   1.84417
 Alpha virt. eigenvalues --    1.84547   1.84632   1.86904   1.92276   1.92807
 Alpha virt. eigenvalues --    1.92971   1.93982   1.95932   2.00602   2.00958
 Alpha virt. eigenvalues --    2.02320   2.10013   2.10257   2.10412   2.10483
 Alpha virt. eigenvalues --    2.11567   2.11933   2.12257   2.14815   2.16370
 Alpha virt. eigenvalues --    2.18636   2.20561   2.20761   2.23469   2.27567
 Alpha virt. eigenvalues --    2.28912   2.29795   2.30591   2.31333   2.33524
 Alpha virt. eigenvalues --    2.37773   2.37898   2.42103   2.46948   2.47071
 Alpha virt. eigenvalues --    2.48525   2.52934   2.53014   2.53046   2.55391
 Alpha virt. eigenvalues --    2.56548   2.57703   2.58639   2.59137   2.59356
 Alpha virt. eigenvalues --    2.61116   2.61276   2.61429   2.61921   2.62295
 Alpha virt. eigenvalues --    2.62299   2.62418   2.62783   2.64431   2.64806
 Alpha virt. eigenvalues --    2.64959   2.65298   2.65565   2.66433   2.67297
 Alpha virt. eigenvalues --    2.67309   2.67342   2.68357   2.69044   2.74587
 Alpha virt. eigenvalues --    2.77990   2.85988   2.86083   2.97892   3.02086
 Alpha virt. eigenvalues --    3.02233   3.09603   3.11013   3.26428   3.65365
 Alpha virt. eigenvalues --    3.66243   3.67499   3.70552   3.78164   3.82846
 Alpha virt. eigenvalues --    4.03095   4.37130   4.54885   4.66911   4.70195
 Alpha virt. eigenvalues --    4.81682   4.82125   4.99378   5.00214   5.05442
 Alpha virt. eigenvalues --    5.05724   5.06833   5.06909   5.08417   5.09142
 Alpha virt. eigenvalues --    5.09694   5.13064   5.17524   5.19082   5.20835
 Alpha virt. eigenvalues --    5.32571   5.33758   5.40084   6.13244   6.16268
 Alpha virt. eigenvalues --    6.17386   6.18509   6.18539   6.20101   6.27890
 Alpha virt. eigenvalues --    6.28898   6.30241   6.33769   6.35758   6.36556
 Alpha virt. eigenvalues --    6.39964   6.40497   6.42907   6.54947   6.66042
 Alpha virt. eigenvalues --    6.68628   6.86569   7.06150   7.07783   7.20649
 Alpha virt. eigenvalues --    7.50905   8.17598   8.18794   8.26996   8.37911
 Alpha virt. eigenvalues --    9.56602  10.78494  10.80219  10.80506  10.80516
 Alpha virt. eigenvalues --   11.02632  11.03260  13.38246  13.38994  13.40435
 Alpha virt. eigenvalues --   13.41297  13.46221  13.47800  13.75559  13.83049
 Alpha virt. eigenvalues --   14.21459  18.16329  18.22150  21.57946  21.58487
 Alpha virt. eigenvalues --   21.73998  25.24358  25.28308  32.18416  43.75669
 Alpha virt. eigenvalues --   44.06451  47.99786  48.00169  48.13594  59.23911
 Alpha virt. eigenvalues --  122.27958 122.28302 122.45672 229.21945 673.74480
     Molecular Orbital Coefficients:
                           1         2         3         4         5
                        (A1)--O   (B2)--O   (B1)--O   (A1)--O   (A1)--O
     Eigenvalues --  -101.67551-101.67551 -19.26724 -19.26723 -12.15814
   1 1   U  1S         -0.00000   0.00000   0.00000   0.00000  -0.00347
   2        2S         -0.00001   0.00000   0.00000   0.00001  -0.54365
   3        3S          0.00000   0.00000   0.00000  -0.00000   0.00649
   4        4S          0.00003   0.00000   0.00000  -0.00003   1.29775
   5        5S         -0.00008   0.00000   0.00000  -0.00009  -1.10037
   6        6S          0.00012   0.00000   0.00000   0.00079  -0.40418
   7        7S         -0.00001   0.00000   0.00000  -0.00362  -0.02196
   8        8S         -0.00057   0.00000   0.00000   0.00452   0.00514
   9        9S          0.00314   0.00000   0.00000  -0.00867  -0.00005
  10       10S         -0.00053   0.00000   0.00000   0.00166  -0.00002
  11       11PX         0.00000   0.00000   0.00000   0.00000   0.00000
  12       11PY         0.00000  -0.00000   0.00000   0.00000   0.00000
  13       11PZ        -0.00000   0.00000   0.00000  -0.00000  -0.00000
  14       12PX         0.00000   0.00000  -0.00002   0.00000   0.00000
  15       12PY         0.00000   0.00002   0.00000   0.00000   0.00000
  16       12PZ         0.00000   0.00000   0.00000   0.00003   0.00005
  17       13PX         0.00000   0.00000   0.00004   0.00000   0.00000
  18       13PY         0.00000  -0.00004   0.00000   0.00000   0.00000
  19       13PZ        -0.00000   0.00000   0.00000  -0.00007  -0.00011
  20       14PX         0.00000   0.00000  -0.00002   0.00000   0.00000
  21       14PY         0.00000   0.00007   0.00000   0.00000   0.00000
  22       14PZ         0.00000   0.00000   0.00000   0.00015   0.00005
  23       15PX         0.00000   0.00000  -0.00027   0.00000   0.00000
  24       15PY         0.00000  -0.00009   0.00000   0.00000   0.00000
  25       15PZ         0.00000   0.00000   0.00000  -0.00025   0.00018
  26       16PX         0.00000   0.00000   0.00312   0.00000   0.00000
  27       16PY         0.00000   0.00014   0.00000   0.00000   0.00000
  28       16PZ        -0.00001   0.00000   0.00000   0.00057   0.00012
  29       17PX         0.00000   0.00000  -0.00737   0.00000   0.00000
  30       17PY         0.00000  -0.00056   0.00000   0.00000   0.00000
  31       17PZ        -0.00021   0.00000   0.00000  -0.00093  -0.00023
  32       18PX         0.00000   0.00000   0.02020   0.00000   0.00000
  33       18PY         0.00000   0.00232   0.00000   0.00000   0.00000
  34       18PZ         0.00133   0.00000   0.00000   0.00057   0.00031
  35       19PX         0.00000   0.00000  -0.00043   0.00000   0.00000
  36       19PY         0.00000  -0.00005   0.00000   0.00000   0.00000
  37       19PZ        -0.00004   0.00000   0.00000   0.00018   0.00004
  38       20D 0        0.00000   0.00000   0.00000  -0.00017  -0.00149
  39       20D+1        0.00000   0.00000   0.00011   0.00000   0.00000
  40       20D-1        0.00000  -0.00004   0.00000   0.00000   0.00000
[...]
     25  0.526486D-02  0.352108D-02  0.255606D-03  0.148573D-02  0.333415D-03
     26 -0.324952D-03  0.520684D-02 -0.240906D-03 -0.383918D-02  0.136529D-02
     27 -0.490248D-02  0.621680D-04 -0.774024D-04 -0.682199D-03 -0.104943D-03
     28  0.304530D-03  0.108407D-01  0.521891D-03  0.226423D-02  0.646147D-03
     29 -0.288546D-02  0.116286D-02  0.235336D-02  0.653385D-03 -0.236746D-02
     30 -0.490145D-02  0.188135D-02 -0.747177D-04  0.127330D-02 -0.110585D-03
     31 -0.367142D-03  0.518238D-03  0.500996D-02  0.259047D-02 -0.523601D-02
     32 -0.135659D-02 -0.352518D-02 -0.204732D-02  0.479888D-02  0.483286D-03
     33  0.104303D-03  0.150775D-03 -0.516568D-02  0.941564D-03  0.489342D-02
     34 -0.727107D-03  0.210871D-02 -0.128452D-02  0.109023D-01 -0.235858D-03
     35  0.212133D-02  0.125146D-02 -0.273492D-02  0.227715D-02  0.263090D-02
     36  0.105334D-03  0.196996D-02 -0.516300D-02  0.289707D-02  0.488777D-02
               16            17            18            19            20 
     16  0.108797D-01
     17 -0.556082D-03  0.435291D-02
     18  0.661925D-03 -0.144403D-02  0.465626D-02
     19  0.558584D-03  0.795375D-03 -0.895481D-03  0.102678D-01
     20  0.157983D-02 -0.378028D-03  0.360450D-03  0.275988D-03  0.533168D-03
     21  0.182813D-03 -0.438379D-03  0.395302D-03 -0.157518D-02  0.665084D-04
     22 -0.905878D-02  0.145105D-02 -0.128038D-02 -0.453522D-03 -0.281781D-02
     23 -0.578639D-03  0.288525D-02 -0.304600D-02  0.660624D-03 -0.454584D-03
     24  0.757058D-03 -0.290220D-02  0.305469D-02 -0.102376D-02  0.275329D-03
     25 -0.634834D-03 -0.920867D-03  0.768506D-03 -0.475718D-02  0.589022D-03
     26  0.390350D-02 -0.354444D-03  0.240329D-03  0.190168D-02  0.112438D-02
     27 -0.504232D-04  0.576716D-03 -0.372674D-03  0.511454D-02 -0.182346D-03
     28 -0.210309D-02 -0.374099D-03  0.265197D-03  0.187493D-02  0.116804D-02
     29 -0.126329D-02  0.588559D-03 -0.375606D-03  0.533205D-02 -0.140971D-04
     30 -0.198575D-02  0.568696D-03 -0.363812D-03  0.508212D-02 -0.185303D-03
     31 -0.348506D-02  0.856320D-03 -0.701748D-03  0.474534D-02 -0.226050D-03
     32 -0.478384D-02  0.308008D-03 -0.202668D-03 -0.181067D-02 -0.156404D-02
     33 -0.758086D-04 -0.540487D-03  0.335221D-03 -0.508327D-02 -0.272267D-03
     34 -0.107904D-01  0.288353D-03 -0.177800D-03 -0.183741D-02 -0.152038D-02
     35 -0.128867D-02 -0.528644D-03  0.332289D-03 -0.486576D-02 -0.104018D-03
     36 -0.201113D-02 -0.548508D-03  0.344082D-03 -0.511568D-02 -0.275224D-03
               21            22            23            24            25 
     21  0.359821D-03
     22 -0.617967D-03  0.182947D-01
     23 -0.317040D-03  0.146272D-02  0.417471D-02
     24  0.509349D-03 -0.125028D-02 -0.175381D-02  0.420168D-02
     25  0.850899D-03 -0.317173D-02 -0.706909D-03  0.861666D-03  0.647543D-02
     26  0.643217D-04 -0.904758D-02 -0.315618D-03  0.298166D-03 -0.229210D-03
     27 -0.732622D-03  0.294585D-03  0.416740D-03 -0.462963D-03 -0.524271D-02
     28  0.161139D-03 -0.867293D-02 -0.302927D-03  0.193671D-03  0.287715D-02
     29 -0.609903D-03  0.419532D-03  0.481758D-03 -0.515150D-03 -0.235160D-02
     30 -0.712443D-03  0.410033D-03  0.414160D-03 -0.493312D-03 -0.448356D-02
     31 -0.894594D-03  0.325167D-02  0.778337D-03 -0.886667D-03  0.774248D-03
     32  0.150415D-04  0.824765D-02  0.189296D-03 -0.287556D-03 -0.164761D-02
     33  0.865756D-03 -0.378510D-03 -0.514727D-03  0.422318D-03 -0.296064D-03
     34  0.111858D-03  0.862229D-02  0.201987D-03 -0.392050D-03  0.145875D-02
     35  0.988475D-03 -0.253563D-03 -0.449709D-03  0.370131D-03  0.259505D-02
     36  0.885935D-03 -0.263062D-03 -0.517307D-03  0.391969D-03  0.463090D-03
               26            27            28            29            30 
     26  0.582915D-02
     27  0.183622D-02  0.521929D-02
     28  0.520889D-02  0.713831D-03  0.110181D-01
     29  0.879612D-03  0.293005D-02  0.213857D-02  0.374932D-02
     30  0.172514D-02  0.507788D-02  0.255867D-02  0.327535D-02  0.555687D-02
     31 -0.179937D-02 -0.298431D-03  0.141651D-02  0.284251D-02  0.471700D-03
     32 -0.331630D-02  0.455626D-03 -0.357032D-02 -0.449700D-03  0.464968D-03
     33  0.482907D-03  0.701341D-04 -0.637510D-03 -0.244383D-02 -0.466025D-04
     34 -0.393656D-02 -0.666764D-03  0.223885D-02  0.809255D-03  0.129849D-02
     35 -0.473702D-03 -0.221911D-02  0.787225D-03 -0.162456D-02 -0.184913D-02
     36  0.371826D-03 -0.712744D-04  0.120732D-02 -0.209853D-02  0.432387D-03
               31            32            33            34            35 
     31  0.648607D-02
     32 -0.289958D-03  0.504680D-02
     33 -0.523761D-02  0.176611D-02  0.519125D-02
     34  0.292593D-02  0.479279D-02  0.645689D-03  0.109682D-01
     35 -0.209666D-02  0.860781D-03  0.267729D-02  0.212171D-02  0.327184D-02
     36 -0.446748D-02  0.177545D-02  0.507451D-02  0.261095D-02  0.304726D-02
               36 
     36  0.557818D-02
 Leave Link  716 at Sun Jan 22 19:50:19 2023, MaxMem=  1048576000 cpu:               0.1 elap:               0.1
 (Enter /home/pcmt/gaussian/g16.C.01/g16/l103.exe)

 GradGradGradGradGradGradGradGradGradGradGradGradGradGradGradGradGradGrad
 Berny optimization.
 Red2BG is reusing G-inverse.
 Internal  Forces:  Max     0.000000074 RMS     0.000000028
 Search for a local minimum.
 Step number   1 out of a maximum of    2
 All quantities printed in internal units (Hartrees-Bohrs-Radians)
 Second derivative matrix not updated -- analytic derivatives used.
 ITU=  0
     Eigenvalues ---    0.00072   0.00128   0.00139   0.00153   0.00671
     Eigenvalues ---    0.00907   0.01172   0.02628   0.04210   0.04235
     Eigenvalues ---    0.05449   0.11728   0.12804   0.54419   0.55180
 Angle between quadratic step and forces=  90.00 degrees.
 Linear search not attempted -- first point.
 Iteration  1 RMS(Cart)=  0.00000156 RMS(Int)=  0.00000000
 Iteration  2 RMS(Cart)=  0.00000000 RMS(Int)=  0.00000000
 ITry= 1 IFail=0 DXMaxC= 5.41D-06 DCOld= 1.00D+10 DXMaxT= 3.00D-01 DXLimC= 3.00D+00 Rises=F
 ClnCor:  largest displacement from symmetrization is 9.87D-11 for atom     5.
 Variable       Old X    -DE/DX   Delta X   Delta X   Delta X     New X
                                 (Linear)    (Quad)   (Total)
    R1        3.27755  -0.00000   0.00000  -0.00000  -0.00000   3.27755
    R2        3.27755  -0.00000   0.00000  -0.00000  -0.00000   3.27755
    R3        4.75812   0.00000   0.00000   0.00000   0.00000   4.75812
    R4        4.75812   0.00000   0.00000   0.00000   0.00000   4.75812
    R5        6.10141  -0.00000   0.00000  -0.00000  -0.00000   6.10141
    R6        6.10141  -0.00000   0.00000  -0.00000  -0.00000   6.10141
    R7        7.53474   0.00000   0.00000   0.00000   0.00000   7.53474
    R8        7.53474   0.00000   0.00000   0.00000   0.00000   7.53474
    A1        1.62904   0.00000   0.00000   0.00000   0.00000   1.62904
    A2        1.62904   0.00000   0.00000   0.00000   0.00000   1.62904
    A3        1.48904  -0.00000   0.00000  -0.00000  -0.00000   1.48904
    A4        1.48904  -0.00000   0.00000  -0.00000  -0.00000   1.48904
    A5        1.62904   0.00000   0.00000   0.00000   0.00000   1.62904
    A6        1.62904   0.00000   0.00000   0.00000   0.00000   1.62904
    A7        1.48904  -0.00000   0.00000  -0.00000  -0.00000   1.48904
    A8        1.48904  -0.00000   0.00000  -0.00000  -0.00000   1.48904
    A9        1.93948   0.00000   0.00000   0.00000   0.00000   1.93948
   A10        1.30876  -0.00000   0.00000  -0.00000  -0.00000   1.30876
   A11        3.25808   0.00000   0.00000   0.00000   0.00000   3.25808
   A12        3.11808  -0.00000   0.00000  -0.00000  -0.00000   3.11808
   A13        3.11808  -0.00000   0.00000  -0.00000  -0.00000   3.11808
   A14        3.31187   0.00000   0.00000   0.00000   0.00000   3.31187
   A15        3.45686   0.00000   0.00000   0.00000   0.00000   3.45686
   A16        2.82633  -0.00000   0.00000  -0.00000  -0.00000   2.82633
    D1       -1.65594  -0.00000   0.00000  -0.00000  -0.00000  -1.65594
    D2        1.50789  -0.00000   0.00000  -0.00000  -0.00000   1.50789
    D3        1.63370   0.00000   0.00000   0.00000   0.00000   1.63370
    D4       -1.63370  -0.00000   0.00000  -0.00000  -0.00000  -1.63370
    D5       -1.50789   0.00000   0.00000   0.00000   0.00000  -1.50789
    D6       -1.50789   0.00000   0.00000   0.00000   0.00000  -1.50789
    D7        1.65594   0.00000   0.00000   0.00000   0.00000   1.65594
    D8       -1.50789   0.00000   0.00000   0.00000   0.00000  -1.50789
    D9       -1.63370  -0.00000   0.00000  -0.00000  -0.00000  -1.63370
   D10        1.63370   0.00000   0.00000   0.00000   0.00000   1.63370
   D11        1.50789  -0.00000   0.00000  -0.00000  -0.00000   1.50789
   D12        1.50789  -0.00000   0.00000  -0.00000  -0.00000   1.50789
         Item               Value     Threshold  Converged?
 Maximum Force            0.000000     0.000450     YES
 RMS     Force            0.000000     0.000300     YES
 Maximum Displacement     0.000005     0.001800     YES
 RMS     Displacement     0.000002     0.001200     YES
 Predicted change in Energy=-1.828427D-13
 Optimization completed.
    -- Stationary point found.
                           ----------------------------
                           !   Optimized Parameters   !
                           ! (Angstroms and Degrees)  !
 --------------------------                            --------------------------
 ! Name  Definition              Value          Derivative Info.                !
 --------------------------------------------------------------------------------
 ! R1    R(1,2)                  1.7344         -DE/DX =    0.0                 !
 ! R2    R(1,3)                  1.7344         -DE/DX =    0.0                 !
 ! R3    R(1,4)                  2.5179         -DE/DX =    0.0                 !
 ! R4    R(1,5)                  2.5179         -DE/DX =    0.0                 !
 ! R5    R(1,6)                  3.2287         -DE/DX =    0.0                 !
 ! R6    R(1,7)                  3.2287         -DE/DX =    0.0                 !
 ! R7    R(4,7)                  3.9872         -DE/DX =    0.0                 !
 ! R8    R(5,6)                  3.9872         -DE/DX =    0.0                 !
 ! A1    A(2,1,4)               93.3371         -DE/DX =    0.0                 !
 ! A2    A(2,1,5)               93.3371         -DE/DX =    0.0                 !
 ! A3    A(2,1,6)               85.3155         -DE/DX =    0.0                 !
 ! A4    A(2,1,7)               85.3155         -DE/DX =    0.0                 !
 ! A5    A(3,1,4)               93.3371         -DE/DX =    0.0                 !
 ! A6    A(3,1,5)               93.3371         -DE/DX =    0.0                 !
 ! A7    A(3,1,6)               85.3155         -DE/DX =    0.0                 !
 ! A8    A(3,1,7)               85.3155         -DE/DX =    0.0                 !
 ! A9    A(4,1,5)              111.1238         -DE/DX =    0.0                 !
 ! A10   A(6,1,7)               74.9866         -DE/DX =    0.0                 !
 ! A11   L(2,1,3,4,-1)         186.6741         -DE/DX =    0.0                 !
 ! A12   L(4,1,6,3,-1)         178.6526         -DE/DX =    0.0                 !
 ! A13   L(5,1,7,3,-1)         178.6526         -DE/DX =    0.0                 !
 ! A14   L(2,1,3,4,-2)         189.7563         -DE/DX =    0.0                 !
 ! A15   L(4,1,6,3,-2)         198.0633         -DE/DX =    0.0                 !
 ! A16   L(5,1,7,3,-2)         161.9367         -DE/DX =    0.0                 !
 ! D1    D(2,1,5,4)            -94.8781         -DE/DX =    0.0                 !
 ! D2    D(2,1,6,4)             86.3959         -DE/DX =    0.0                 !
 ! D3    D(2,1,7,4)             93.6041         -DE/DX =    0.0                 !
 ! D4    D(2,1,6,5)            -93.6041         -DE/DX =    0.0                 !
 ! D5    D(2,1,7,5)            -86.3959         -DE/DX =    0.0                 !
 ! D6    D(2,1,7,6)            -86.3959         -DE/DX =    0.0                 !
 ! D7    D(3,1,5,4)             94.8781         -DE/DX =    0.0                 !
 ! D8    D(3,1,6,4)            -86.3959         -DE/DX =    0.0                 !
 ! D9    D(3,1,7,4)            -93.6041         -DE/DX =    0.0                 !
 ! D10   D(3,1,6,5)             93.6041         -DE/DX =    0.0                 !
 ! D11   D(3,1,7,5)             86.3959         -DE/DX =    0.0                 !
 ! D12   D(3,1,7,6)             86.3959         -DE/DX =    0.0                 !
 --------------------------------------------------------------------------------
 GradGradGradGradGradGradGradGradGradGradGradGradGradGradGradGradGradGrad

 Leave Link  103 at Sun Jan 22 19:50:19 2023, MaxMem=  1048576000 cpu:               0.1 elap:               0.1
 (Enter /home/pcmt/gaussian/g16.C.01/g16/l9999.exe)

 ----------------------------------------------------------------------

 Electric dipole moment (input orientation):
 (Debye = 10**-18 statcoulomb cm , SI units = C m)
                  (au)            (Debye)         (10**-30 SI)
   Tot        0.242262D+01      0.615769D+01      0.205398D+02
   x          0.000000D+00      0.000000D+00      0.000000D+00
   y          0.242262D+01      0.615769D+01      0.205398D+02
   z          0.000000D+00      0.000000D+00      0.000000D+00

 Dipole polarizability, Alpha (input orientation).
 (esu units = cm**3 , SI units = C**2 m**2 J**-1)
 Alpha(0;0):
               (au)            (10**-24 esu)      (10**-40 SI)
   iso        0.943486D+02      0.139810D+02      0.155560D+02
   aniso      0.277498D+02      0.411209D+01      0.457532D+01
   xx         0.797940D+02      0.118242D+02      0.131563D+02
   yx         0.000000D+00      0.000000D+00      0.000000D+00
   yy         0.917362D+02      0.135939D+02      0.151253D+02
   zx         0.000000D+00      0.000000D+00      0.000000D+00
   zy         0.000000D+00      0.000000D+00      0.000000D+00
   zz         0.111516D+03      0.165249D+02      0.183864D+02

 ----------------------------------------------------------------------

 Dipole orientation:
    92          0.00000000          0.00000000         -0.76677461
     8         -3.26014363         -0.00000000         -0.42940769
     8          3.26014363          0.00000000         -0.42940769
    17          0.00000000         -3.92420295         -3.45756725
    17         -0.00000000          3.92420295         -3.45756725
    18         -0.00000000          3.71373945          4.07423520
    18          0.00000000         -3.71373945          4.07423520

 Electric dipole moment (dipole orientation):
 (Debye = 10**-18 statcoulomb cm , SI units = C m)
                  (au)            (Debye)         (10**-30 SI)
   Tot        0.242262D+01      0.615769D+01      0.205398D+02
   x          0.000000D+00      0.000000D+00      0.000000D+00
   y          0.000000D+00      0.000000D+00      0.000000D+00
   z          0.242262D+01      0.615769D+01      0.205398D+02

 Dipole polarizability, Alpha (dipole orientation).
 (esu units = cm**3 , SI units = C**2 m**2 J**-1)
 Alpha(0;0):
               (au)            (10**-24 esu)      (10**-40 SI)
   iso        0.943486D+02      0.139810D+02      0.155560D+02
   aniso      0.277498D+02      0.411209D+01      0.457532D+01
   xx         0.797940D+02      0.118242D+02      0.131563D+02
   yx         0.000000D+00      0.000000D+00      0.000000D+00
   yy         0.111516D+03      0.165249D+02      0.183864D+02
   zx         0.000000D+00      0.000000D+00      0.000000D+00
   zy         0.000000D+00      0.000000D+00      0.000000D+00
   zz         0.917362D+02      0.135939D+02      0.151253D+02

 ----------------------------------------------------------------------

 Test job not archived.
 1\1\GINC-U-5-3\Freq\RPBE1PBE\Gen\Ar2Cl2O2U1\VALLET\22-Jan-2023\0\\#p P
 BE1PBE/GEN GFInput GFPrint 5D 7F IOP(6/7=3, 4/69=2, 6/10=1) Pseudo=Rea
 d EmpiricalDispersion=GD3BJ Symm=(Loose) Int=(UltraFine) Guess=(CheckP
 oint) Geom=CheckPoint Scf=(NoVarAcc,MaxCycle=100,conver=8) Freq\\[UO2C
 l2Ar2]2- - PBE0+D3BJ - GS\\0,1\U,0.,-0.4057596476,0.\O,-1.725193714,-0
 .2272327641,0.\O,1.725193714,-0.2272327641,0.\Cl,0.,-1.8296657925,2.07
 65987711\Cl,0.,-1.8296657925,-2.0765987711\Ar,0.,2.1559924224,-1.96522
 62838\Ar,0.,2.1559924224,1.9652262838\\Version=ES64L-G16RevC.01\State=
 1-A1\HF=-1589.9183091\RMSD=4.961e-09\RMSF=3.473e-08\ZeroPoint=0.008620
 3\Thermal=0.0203982\ETot=-1589.8979109\HTot=-1589.8969667\GTot=-1589.9
 544981\Dipole=0.,2.4226208,0.\DipoleDeriv=3.2775809,-0.0000001,0.00000
 03,0.,2.2969874,0.,0.,0.,3.0796661,-1.4641905,0.4168559,0.,0.1793479,-
 0.4145608,0.,0.,0.,-0.3783573,-1.4641905,-0.4168558,-0.0000001,-0.1793
 479,-0.4145607,0.,0.,0.,-0.3783573,-0.2610114,0.,0.,0.,-0.6478719,0.49
 546,0.,0.3933897,-1.119772,-0.2610114,0.,0.,0.,-0.6478719,-0.49546,0.,
 -0.3933897,-1.119772,0.0864114,0.,0.,0.,-0.086061,0.1272072,0.,0.13095
 57,-0.0417038,0.0864114,0.,0.,0.,-0.086061,-0.1272072,0.,-0.1309557,-0
 .0417038\Polar=79.7939907,0.,91.7362235,0.,0.0000003,111.5155973\Quadr
 upole=-2.8119819,3.6811054,-0.8691235,0.,0.,0.\PG=C02V [C2(U1),SGV(Ar2
 Cl2),SGV'(O2)]\NImag=0\\1.14779228,0.,0.16659126,-0.00000003,0.,0.2396
 2397,-0.55458164,0.02576040,0.00000001,0.54265709,0.04295949,-0.031062
 11,0.,-0.04474166,0.02250445,0.00000002,0.,-0.03511071,0.,0.,0.0249400
 8,-0.55458164,-0.02576039,0.00000002,0.00434049,-0.00499587,-0.0000000
 1,0.54265709,-0.04295949,-0.03106211,0.,0.00499587,0.00863104,0.,0.044
 74166,0.02250445,0.00000002,0.,-0.03511071,-0.00000001,0.,0.00881092,0
 .,0.,0.02494008,-0.01865017,0.,0.,0.00392302,0.00405719,-0.00629941,0.
 00392302,-0.00405719,0.00629941,0.01066774,0.,-0.04890222,0.05358680,0
 .00837953,0.00011051,0.00081874,-0.00837953,0.00011051,0.00081873,0.,0
 .04440918,0.,0.05798960,-0.08292388,-0.01355214,0.00173740,0.00091399,
 0.01355214,0.00173740,0.00091399,0.,-0.05936437,0.08531987,-0.01865017
 ,0.,0.,0.00392302,0.00405719,0.00629941,0.00392302,-0.00405719,-0.0062
 9941,0.00012850,0.,0.,0.01066774,0.,-0.04890222,-0.05358680,0.00837953
 ,0.00011051,-0.00081873,-0.00837953,0.00011051,-0.00081874,0.,0.005472
 21,-0.00372912,0.,0.04440918,0.,-0.05798960,-0.08292388,0.01355214,-0.
 00173740,0.00091399,-0.01355214,-0.00173740,0.00091399,0.,0.00372912,-
 0.00384476,0.,0.05936437,0.08531987,-0.00066433,0.,0.,-0.00013099,-0.0
 0066817,0.00044542,-0.00013099,0.00066817,-0.00044542,0.00006404,0.,0.
 ,-0.00005614,0.,0.,0.00091239,0.,-0.00333130,0.00201253,-0.00138683,-0
 .00014719,0.00028920,0.00138683,-0.00014719,0.00028920,0.,-0.00050393,
 0.00111670,0.,-0.00069626,-0.00051239,0.,0.00479604,0.,0.00252045,-0.0
 0177739,0.00105991,0.00022319,-0.00023414,-0.00105991,0.00022319,-0.00
 023414,0.,0.00033872,-0.00088263,0.,-0.00007226,0.00050342,0.,-0.00321
 427,0.00327945,-0.00066433,0.,0.,-0.00013099,-0.00066817,-0.00044542,-
 0.00013099,0.00066817,0.00044542,-0.00005614,0.,0.,0.00006404,0.,0.,0.
 00000601,0.,0.,0.00091239,0.,-0.00333130,-0.00201253,-0.00138683,-0.00
 014719,-0.00028920,0.00138683,-0.00014719,-0.00028920,0.,-0.00069626,0
 .00051239,0.,-0.00050393,-0.00111670,0.,0.00002983,-0.00001903,0.,0.00
 479604,0.,-0.00252045,-0.00177739,-0.00105991,-0.00022319,-0.00023414,
 0.00105991,-0.00022319,-0.00023414,0.,0.00007226,0.00050342,0.,-0.0003
 3872,-0.00088263,0.,0.00001903,-0.00065457,0.,0.00321427,0.00327945\\0
 .,0.,0.,-0.00000008,-0.00000003,0.,0.00000008,-0.00000003,0.,0.,0.0000
 0003,-0.00000007,0.,0.00000003,0.00000007,0.,0.,0.,0.,0.,0.\\\@


 A great many people think they are thinking when they
 are merely rearranging their prejudices.
                               -- William James
 Job cpu time:       0 days  2 hours 14 minutes 48.8 seconds.
 Elapsed time:       0 days  0 hours 34 minutes 26.3 seconds.
 File lengths (MBytes):  RWF=     80 Int=      0 D2E=      0 Chk=      9 Scr=      1
 Normal termination of Gaussian 16 at Sun Jan 22 19:50:20 2023.
