 Entering Gaussian System, Link 0=/home/pcmt/gaussian/g16.C.01/g16/g16
 AtFile(1): /home/vallet/basis/U-ECP60MWB_SEG
 AtFile(1): /home/vallet/basis/Ar-ECP10MWB_SEG
 AtFile(1): /home/vallet/basis/U-ECP60MWB
 AtFile(1): /home/vallet/basis/Ar-ECP10MWB
 Initial command:
 /home/pcmt/gaussian/g16.C.01/g16/l1.exe "/state/partition1/vallet/922923.phlam-s-sakura/Gau-121292.inp" -scrdir="/state/partition1/vallet/922923.phlam-s-sakura/"
 Entering Link 1 = /home/pcmt/gaussian/g16.C.01/g16/l1.exe PID=    121293.
  
 Copyright (c) 1988-2019, Gaussian, Inc.  All Rights Reserved.
  
 This is part of the Gaussian(R) 16 program.  It is based on
 the Gaussian(R) 09 system (copyright 2009, Gaussian, Inc.),
 the Gaussian(R) 03 system (copyright 2003, Gaussian, Inc.),
 the Gaussian(R) 98 system (copyright 1998, Gaussian, Inc.),
 the Gaussian(R) 94 system (copyright 1995, Gaussian, Inc.),
 the Gaussian 92(TM) system (copyright 1992, Gaussian, Inc.),
 the Gaussian 90(TM) system (copyright 1990, Gaussian, Inc.),
 the Gaussian 88(TM) system (copyright 1988, Gaussian, Inc.),
 the Gaussian 86(TM) system (copyright 1986, Carnegie Mellon
 University), and the Gaussian 82(TM) system (copyright 1983,
 Carnegie Mellon University). Gaussian is a federally registered
 trademark of Gaussian, Inc.
  
 This software contains proprietary and confidential information,
 including trade secrets, belonging to Gaussian, Inc.
  
 This software is provided under written license and may be
 used, copied, transmitted, or stored only in accord with that
 written license.
  
 The following legend is applicable only to US Government
 contracts under FAR:
  
                    RESTRICTED RIGHTS LEGEND
  
 Use, reproduction and disclosure by the US Government is
 subject to restrictions as set forth in subparagraphs (a)
 and (c) of the Commercial Computer Software - Restricted
 Rights clause in FAR 52.227-19.
  
 Gaussian, Inc.
 340 Quinnipiac St., Bldg. 40, Wallingford CT 06492
  
  
 ---------------------------------------------------------------
 Warning -- This program may not be used in any manner that
 competes with the business of Gaussian, Inc. or will provide
 assistance to any competitor of Gaussian, Inc.  The licensee
 of this program is prohibited from giving any competitor of
 Gaussian, Inc. access to this program.  By using this program,
 the user acknowledges that Gaussian, Inc. is engaged in the
 business of creating and licensing software in the field of
 computational chemistry and represents and warrants to the
 licensee that it is not a competitor of Gaussian, Inc. and that
 it will not use this program in any manner prohibited above.
 ---------------------------------------------------------------
  

 Cite this work as:
 Gaussian 16, Revision C.01,
 M. J. Frisch, G. W. Trucks, H. B. Schlegel, G. E. Scuseria, 
 M. A. Robb, J. R. Cheeseman, G. Scalmani, V. Barone, 
 G. A. Petersson, H. Nakatsuji, X. Li, M. Caricato, A. V. Marenich, 
 J. Bloino, B. G. Janesko, R. Gomperts, B. Mennucci, H. P. Hratchian, 
 J. V. Ortiz, A. F. Izmaylov, J. L. Sonnenberg, D. Williams-Young, 
 F. Ding, F. Lipparini, F. Egidi, J. Goings, B. Peng, A. Petrone, 
 T. Henderson, D. Ranasinghe, V. G. Zakrzewski, J. Gao, N. Rega, 
 G. Zheng, W. Liang, M. Hada, M. Ehara, K. Toyota, R. Fukuda, 
 J. Hasegawa, M. Ishida, T. Nakajima, Y. Honda, O. Kitao, H. Nakai, 
 T. Vreven, K. Throssell, J. A. Montgomery, Jr., J. E. Peralta, 
 F. Ogliaro, M. J. Bearpark, J. J. Heyd, E. N. Brothers, K. N. Kudin, 
 V. N. Staroverov, T. A. Keith, R. Kobayashi, J. Normand, 
 K. Raghavachari, A. P. Rendell, J. C. Burant, S. S. Iyengar, 
 J. Tomasi, M. Cossi, J. M. Millam, M. Klene, C. Adamo, R. Cammi, 
 J. W. Ochterski, R. L. Martin, K. Morokuma, O. Farkas, 
 J. B. Foresman, and D. J. Fox, Gaussian, Inc., Wallingford CT, 2019.
 
 ******************************************
 Gaussian 16:  ES64L-G16RevC.01  3-Jul-2019
                23-Jan-2023 
 ******************************************
 %mem=8000Mb
 %NProc=4
 Will use up to    4 processors via shared memory.
 %oldchk=tddft-s1-uo2_cl2_2ar.pbe0-d3.optg.chk
 %chk=tddft-s1-uo2_cl2_2ar.pbe0-d3.freq.chk
 Copying data from "tddft-s1-uo2_cl2_2ar.pbe0-d3.optg.chk" to current chk file "tddft-s1-uo2_cl2_2ar.pbe0-d3.freq.chk"
 IOpt=  2 FromEx=T IUOpen= 4 IOptOp= 5 NList=   0 IFRang= 0 IUIn= 4 IUOut= 2.
 ----------------------------------------------------------------------
 #p PBE1PBE/GEN GFInput GFPrint 5D 7F Pseudo=Read IOP(2/9=2, 4/69=2, 6/
 7=3, 8/10=91, 8/37=32, 8/38=0) EmpiricalDispersion=GD3BJ Symm=(Loose) 
 Int=(UltraFine) Guess=(Read) Geom=CheckPoint Scf=(NoVarAcc,MaxCycle=10
 0,conver=8) td=(triplets,nstates=4,root=1) Freq
 ----------------------------------------------------------------------
 1/10=4,29=2,30=1,38=1/1,3;
 2/9=2,12=2,17=4,18=3,40=1/2;
 3/5=7,8=11,11=9,14=-4,16=1,17=8,24=110,25=1,30=1,71=2,74=-13,75=-5,116=-2,124=41,140=1/1,2,3,8;
 4/5=1,69=2/1;
 5/5=2,6=8,7=100,38=6,98=1/2;
 8/6=1,10=91,37=32,107=1,108=4/1;
 9/8=1,15=3,41=4,42=1,48=3,70=2/14;
 10/5=2004,20=4,28=1/2;
 11/6=1,8=1,12=-1,16=1,42=3/1,2,10;
 10/6=3,21=1,28=1/2,14;
 6/7=3,8=2,9=2,10=2/1;
 7/8=1,10=1,12=6,13=8,14=1,25=1,44=2/1,2,3,16;
 1/10=4,30=1/3;
 99//99;
 Leave Link    1 at Mon Jan 23 19:06:42 2023, MaxMem=  1048576000 cpu:               0.4 elap:               0.1
 (Enter /home/pcmt/gaussian/g16.C.01/g16/l101.exe)
 ------------------------------
 [UO2Cl2Ar2]2- - PBE0+D3BJ - GS
 ------------------------------
 Structure from the checkpoint file:  "tddft-s1-uo2_cl2_2ar.pbe0-d3.freq.chk"
 Charge =  0 Multiplicity = 1
 Redundant internal coordinates found in file.  (old form).
 U,0,0.,-0.4010183661,0.
 O,0,-1.7456320493,-0.181234803,0.
 O,0,1.7456320493,-0.181234803,0.
 Cl,0,0.,-1.9100540027,2.0215406782
 Cl,0,0.,-1.9100540027,-2.0215406782
 Ar,0,0.,2.1880403695,-1.9964404341
 Ar,0,0.,2.1880403695,1.9964404341
 Recover connectivity data from disk.
 ITRead=  0  0  0  0  0  0  0
 MicOpt= -1 -1 -1 -1 -1 -1 -1
 NAtoms=      7 NQM=        7 NQMF=       0 NMMI=      0 NMMIF=      0
                NMic=       0 NMicF=      0.
                    Isotopes and Nuclear Properties:
 (Nuclear quadrupole moments (NQMom) in fm**2, nuclear magnetic moments (NMagM)
  in nuclear magnetons)

  Atom         1           2           3           4           5           6           7
 IAtWgt=         238          16          16          35          35          40          40
 AtmWgt= 238.0508000  15.9949146  15.9949146  34.9688527  34.9688527  39.9623831  39.9623831
 NucSpn=           0           0           0           3           3           0           0
 AtZEff=   0.0000000   5.6000000   5.6000000  14.2400000  14.2400000 216.0000000 216.0000000
 NQMom=    0.0000000   0.0000000   0.0000000  -8.1650000  -8.1650000   0.0000000   0.0000000
 NMagM=    0.0000000   0.0000000   0.0000000   0.8218740   0.8218740   0.0000000   0.0000000
 AtZNuc=  92.0000000   8.0000000   8.0000000  17.0000000  17.0000000  18.0000000  18.0000000
 Leave Link  101 at Mon Jan 23 19:06:42 2023, MaxMem=  1048576000 cpu:               0.7 elap:               0.2
 (Enter /home/pcmt/gaussian/g16.C.01/g16/l103.exe)

 GradGradGradGradGradGradGradGradGradGradGradGradGradGradGradGradGradGrad
 Berny optimization.
 Initialization pass.
                           ----------------------------
                           !    Initial Parameters    !
                           ! (Angstroms and Degrees)  !
 --------------------------                            --------------------------
 ! Name  Definition              Value          Derivative Info.                !
 --------------------------------------------------------------------------------
 ! R1    R(1,2)                  1.7594         calculate D2E/DX2 analytically  !
 ! R2    R(1,3)                  1.7594         calculate D2E/DX2 analytically  !
 ! R3    R(1,4)                  2.5227         calculate D2E/DX2 analytically  !
 ! R4    R(1,5)                  2.5227         calculate D2E/DX2 analytically  !
 ! R5    R(1,6)                  3.2694         calculate D2E/DX2 analytically  !
 ! R6    R(1,7)                  3.2694         calculate D2E/DX2 analytically  !
 ! R7    R(4,7)                  4.0982         calculate D2E/DX2 analytically  !
 ! R8    R(5,6)                  4.0982         calculate D2E/DX2 analytically  !
 ! A1    A(2,1,4)               94.2854         calculate D2E/DX2 analytically  !
 ! A2    A(2,1,5)               94.2854         calculate D2E/DX2 analytically  !
 ! A3    A(2,1,6)               84.3228         calculate D2E/DX2 analytically  !
 ! A4    A(2,1,7)               84.3228         calculate D2E/DX2 analytically  !
 ! A5    A(3,1,4)               94.2854         calculate D2E/DX2 analytically  !
 ! A6    A(3,1,5)               94.2854         calculate D2E/DX2 analytically  !
 ! A7    A(3,1,6)               84.3228         calculate D2E/DX2 analytically  !
 ! A8    A(3,1,7)               84.3228         calculate D2E/DX2 analytically  !
 ! A9    A(4,1,5)              106.5189         calculate D2E/DX2 analytically  !
 ! A10   A(6,1,7)               75.2721         calculate D2E/DX2 analytically  !
 ! A11   L(2,1,3,4,-1)         188.5709         calculate D2E/DX2 analytically  !
 ! A12   L(4,1,6,3,-1)         178.6082         calculate D2E/DX2 analytically  !
 ! A13   L(5,1,7,3,-1)         178.6082         calculate D2E/DX2 analytically  !
 ! A14   L(2,1,3,4,-2)         191.5226         calculate D2E/DX2 analytically  !
 ! A15   L(4,1,6,3,-2)         195.6211         calculate D2E/DX2 analytically  !
 ! A16   L(5,1,7,3,-2)         164.3789         calculate D2E/DX2 analytically  !
 ! D1    D(2,1,5,4)            -95.7613         calculate D2E/DX2 analytically  !
 ! D2    D(2,1,6,4)             85.6036         calculate D2E/DX2 analytically  !
 ! D3    D(2,1,7,4)             94.3964         calculate D2E/DX2 analytically  !
 ! D4    D(2,1,6,5)            -94.3964         calculate D2E/DX2 analytically  !
 ! D5    D(2,1,7,5)            -85.6036         calculate D2E/DX2 analytically  !
 ! D6    D(2,1,7,6)            -85.6036         calculate D2E/DX2 analytically  !
 ! D7    D(3,1,5,4)             95.7613         calculate D2E/DX2 analytically  !
 ! D8    D(3,1,6,4)            -85.6036         calculate D2E/DX2 analytically  !
 ! D9    D(3,1,7,4)            -94.3964         calculate D2E/DX2 analytically  !
 ! D10   D(3,1,6,5)             94.3964         calculate D2E/DX2 analytically  !
 ! D11   D(3,1,7,5)             85.6036         calculate D2E/DX2 analytically  !
 ! D12   D(3,1,7,6)             85.6036         calculate D2E/DX2 analytically  !
 --------------------------------------------------------------------------------
 Trust Radius=3.00D-01 FncErr=1.00D-07 GrdErr=1.00D-07 EigMax=2.50D+02 EigMin=1.00D-04
 Number of steps in this run=      2 maximum allowed number of steps=      2.
 GradGradGradGradGradGradGradGradGradGradGradGradGradGradGradGradGradGrad

 Leave Link  103 at Mon Jan 23 19:06:42 2023, MaxMem=  1048576000 cpu:               0.0 elap:               0.0
 (Enter /home/pcmt/gaussian/g16.C.01/g16/l202.exe)
                          Input orientation:                          
 ---------------------------------------------------------------------
 Center     Atomic      Atomic             Coordinates (Angstroms)
 Number     Number       Type             X           Y           Z
 ---------------------------------------------------------------------
      1         92           0       -0.000000   -0.401018    0.000000
      2          8           0       -1.745632   -0.181235    0.000000
      3          8           0        1.745632   -0.181235   -0.000000
      4         17           0        0.000000   -1.910054    2.021541
      5         17           0       -0.000000   -1.910054   -2.021541
      6         18           0        0.000000    2.188040   -1.996440
      7         18           0        0.000000    2.188040    1.996440
 ---------------------------------------------------------------------
                    Distance matrix (angstroms):
                    1          2          3          4          5
     1  U    0.000000
     2  O    1.759414   0.000000
     3  O    1.759414   3.491264   0.000000
     4  Cl   2.522660   3.181615   3.181615   0.000000
     5  Cl   2.522660   3.181615   3.181615   4.043081   0.000000
     6  Ar   3.269404   3.556188   3.556188   5.739212   4.098171
     7  Ar   3.269404   3.556188   3.556188   4.098171   5.739212
                    6          7
     6  Ar   0.000000
     7  Ar   3.992881   0.000000
 Stoichiometry    Ar2Cl2O2U
 Framework group  C2V[C2(U),SGV(Ar2Cl2),SGV'(O2)]
 Deg. of freedom     6
 Full point group                 C2V     NOp   4
 RotChk:  IX=0 Diff= 9.24D-16
 Largest Abelian subgroup         C2V     NOp   4
 Largest concise Abelian subgroup C2V     NOp   4
                         Standard orientation:                         
 ---------------------------------------------------------------------
 Center     Atomic      Atomic             Coordinates (Angstroms)
 Number     Number       Type             X           Y           Z
 ---------------------------------------------------------------------
      1         92           0        0.000000    0.000000    0.255143
      2          8           0       -1.745632    0.000000    0.035359
      3          8           0        1.745632   -0.000000    0.035359
      4         17           0        0.000000    2.021541    1.764179
      5         17           0       -0.000000   -2.021541    1.764179
      6         18           0       -0.000000   -1.996440   -2.333916
      7         18           0        0.000000    1.996440   -2.333916
 ---------------------------------------------------------------------
 Rotational constants (GHZ):           0.7200651           0.6597248           0.3970183
 Leave Link  202 at Mon Jan 23 19:06:42 2023, MaxMem=  1048576000 cpu:               0.0 elap:               0.0
 (Enter /home/pcmt/gaussian/g16.C.01/g16/l301.exe)
 General basis read from cards:  (5D, 7F)
 Centers:       1
 S 3 1.00
     Exponent=  1.2098082000D+04 Coefficients=  1.0200000000D-04
     Exponent=  1.8337573000D+03 Coefficients=  7.7100000000D-04
     Exponent=  3.5168632000D+02 Coefficients=  2.9690000000D-03
 S 1 1.00
     Exponent=  1.0431426000D+02 Coefficients=  1.0000000000D+00
 S 3 1.00
     Exponent=  6.0905822000D+01 Coefficients=  4.9868000000D-02
     Exponent=  3.5515086000D+01 Coefficients= -2.4531300000D-01
     Exponent=  2.0891227000D+01 Coefficients=  7.2384700000D-01
 S 1 1.00
     Exponent=  1.0184647000D+01 Coefficients=  1.0000000000D+00
 S 1 1.00
     Exponent=  2.8518510000D+00 Coefficients=  1.0000000000D+00
 S 1 1.00
     Exponent=  1.5316160000D+00 Coefficients=  1.0000000000D+00
 S 1 1.00
     Exponent=  6.1620300000D-01 Coefficients=  1.0000000000D+00
 S 1 1.00
     Exponent=  2.7949400000D-01 Coefficients=  1.0000000000D+00
 S 1 1.00
     Exponent=  5.7253000000D-02 Coefficients=  1.0000000000D+00
 S 1 1.00
     Exponent=  2.3443000000D-02 Coefficients=  1.0000000000D+00
 P 5 1.00
     Exponent=  2.9068451000D+03 Coefficients=  8.8000000000D-05
     Exponent=  6.9440053000D+02 Coefficients=  7.3200000000D-04
     Exponent=  2.2463479000D+02 Coefficients=  3.4140000000D-03
     Exponent=  8.0520526000D+01 Coefficients=  1.1099000000D-02
     Exponent=  2.4080211000D+01 Coefficients=  2.5216000000D-02
 P 1 1.00
     Exponent=  1.4077580000D+01 Coefficients=  1.0000000000D+00
 P 1 1.00
     Exponent=  8.2658460000D+00 Coefficients=  1.0000000000D+00
 P 1 1.00
     Exponent=  3.4236070000D+00 Coefficients=  1.0000000000D+00
 P 1 1.00
     Exponent=  1.7084170000D+00 Coefficients=  1.0000000000D+00
 P 1 1.00
     Exponent=  6.5504600000D-01 Coefficients=  1.0000000000D+00
 P 1 1.00
     Exponent=  2.8375500000D-01 Coefficients=  1.0000000000D+00
 P 1 1.00
     Exponent=  1.0181400000D-01 Coefficients=  1.0000000000D+00
 P 1 1.00
     Exponent=  3.0535000000D-02 Coefficients=  1.0000000000D+00
 D 6 1.00
     Exponent=  4.4901953000D+02 Coefficients=  5.0000000000D-05
     Exponent=  1.5635695000D+02 Coefficients=  3.2200000000D-04
     Exponent=  6.0242439000D+01 Coefficients=  1.7770000000D-03
     Exponent=  1.7772317000D+01 Coefficients=  2.5385000000D-02
     Exponent=  1.0454304000D+01 Coefficients= -8.9378000000D-02
     Exponent=  3.5834330000D+00 Coefficients=  4.4479900000D-01
 D 1 1.00
     Exponent=  1.7637240000D+00 Coefficients=  1.0000000000D+00
 D 1 1.00
     Exponent=  7.8403000000D-01 Coefficients=  1.0000000000D+00
 D 1 1.00
     Exponent=  2.7612700000D-01 Coefficients=  1.0000000000D+00
 D 1 1.00
     Exponent=  8.6980000000D-02 Coefficients=  1.0000000000D+00
 F 5 1.00
     Exponent=  1.0528793000D+02 Coefficients=  2.2800000000D-04
     Exponent=  3.5101181000D+01 Coefficients=  2.3080000000D-03
     Exponent=  1.4564138000D+01 Coefficients=  9.2530000000D-03
     Exponent=  4.6518850000D+00 Coefficients=  1.3694900000D-01
     Exponent=  2.2559730000D+00 Coefficients=  3.3980100000D-01
 F 1 1.00
     Exponent=  1.0102740000D+00 Coefficients=  1.0000000000D+00
 F 1 1.00
     Exponent=  4.1168000000D-01 Coefficients=  1.0000000000D+00
 F 1 1.00
     Exponent=  1.4412000000D-01 Coefficients=  1.0000000000D+00
 G 4 1.00
     Exponent=  1.0528793000D+02 Coefficients=  1.3700000000D-04
     Exponent=  3.5101181000D+01 Coefficients=  1.8310000000D-03
     Exponent=  1.4564138000D+01 Coefficients=  1.9940000000D-02
     Exponent=  4.6518850000D+00 Coefficients=  1.1075800000D-01
 G 1 1.00
     Exponent=  2.2559730000D+00 Coefficients=  1.0000000000D+00
 G 1 1.00
     Exponent=  1.0102740000D+00 Coefficients=  1.0000000000D+00
 ****
 Centers:       6      7
 S 3 1.00
     Exponent=  1.7466965500D+02 Coefficients=  2.5870000000D-03
     Exponent=  1.2695768000D+01 Coefficients=  6.2313000000D-02
     Exponent=  2.9178340000D+00 Coefficients= -1.0421580000D+00
 S 1 1.00
     Exponent=  6.7084000000D-01 Coefficients=  1.0000000000D+00
 S 1 1.00
     Exponent=  2.9911200000D-01 Coefficients=  1.0000000000D+00
 S 1 1.00
     Exponent=  1.3140200000D-01 Coefficients=  1.0000000000D+00
 P 3 1.00
     Exponent=  1.9887221000D+01 Coefficients=  2.3346000000D-02
     Exponent=  3.7761720000D+00 Coefficients= -2.2462100000D-01
     Exponent=  1.2115160000D+00 Coefficients=  1.1375960000D+00
 P 1 1.00
     Exponent=  5.3849900000D-01 Coefficients=  1.0000000000D+00
 P 1 1.00
     Exponent=  2.2957500000D-01 Coefficients=  1.0000000000D+00
 P 1 1.00
     Exponent=  9.5103000000D-02 Coefficients=  1.0000000000D+00
 D 1 1.00
     Exponent=  1.4509000000D+00 Coefficients=  1.0000000000D+00
 D 1 1.00
     Exponent=  4.3850000000D-01 Coefficients=  1.0000000000D+00
 D 1 1.00
     Exponent=  1.3250000000D-01 Coefficients=  1.0000000000D+00
 F 1 1.00
     Exponent=  9.3050000000D-01 Coefficients=  1.0000000000D+00
 ****
 Centers:       4      5
 Def2TZVP
 ****
 Centers:       2      3
 Def2TZVP
 ****
 ======================================================================================================
                                       Pseudopotential Parameters
 ======================================================================================================
  Center     Atomic      Valence      Angular      Power
  Number     Number     Electrons     Momentum     of R      Exponent        Coefficient   SO-Coeffient
 ======================================================================================================
    1         92           32
                                      H and up 
                                                     2        1.0000000        0.00000000    0.00000000
                                      S - H
                                                     2       16.4140387      536.51662778    0.00000000
                                      P - H
                                                     2        9.0605561      169.54492465    0.00000000
                                      D - H
                                                     2        8.8318320      142.61559837    0.00000000
                                      F - H
                                                     2        7.0185163       60.39307602    0.00000000
                                      G - H
                                                     2       12.8040884      -60.12998958    0.00000000
    2          8
                                   No pseudopotential on this center.
    3          8
                                   No pseudopotential on this center.
    4         17
                                   No pseudopotential on this center.
    5         17
                                   No pseudopotential on this center.
    6         18            8
                                      G and up 
                                                     2        1.0000000        0.00000000    0.00000000
                                      S - G
                                                     2       10.2617210       68.66778801    0.00000000
                                                     2        3.9527250       24.04276629    0.00000000
                                      P - G
                                                     2        5.3927140       27.73076331    0.00000000
                                                     2        2.6999670        4.04545904    0.00000000
                                      D - G
                                                     2        8.0862350       -8.13747696    0.00000000
                                                     2        4.0166320       -1.66452808    0.00000000
                                      F - G
                                                     2        5.2084590       -3.40009845    0.00000000
    7         18            8
                                      G and up 
                                                     2        1.0000000        0.00000000    0.00000000
                                      S - G
                                                     2       10.2617210       68.66778801    0.00000000
                                                     2        3.9527250       24.04276629    0.00000000
                                      P - G
                                                     2        5.3927140       27.73076331    0.00000000
                                                     2        2.6999670        4.04545904    0.00000000
                                      D - G
                                                     2        8.0862350       -8.13747696    0.00000000
                                                     2        4.0166320       -1.66452808    0.00000000
                                      F - G
                                                     2        5.2084590       -3.40009845    0.00000000
 ======================================================================================================
 Ernie: Thresh=  0.10000D-02 Tol=  0.10000D-05 Strict=F.
 AO basis set in the form of general basis input (Overlap normalization):
      1 0
 S   3 1.00       0.000000000000
      0.1209808200D+05  0.2884168448D-01
      0.1833757300D+04  0.2180092033D+00
      0.3516863200D+03  0.8395192276D+00
 S   3 1.00       0.000000000000
      0.6090582200D+02  0.9338504807D-01
      0.3551508600D+02 -0.4593840999D+00
      0.2089122700D+02  0.1355508280D+01
 S   1 1.00       0.000000000000
      0.1043142600D+03  0.1000000000D+01
 S   1 1.00       0.000000000000
      0.1018464700D+02  0.1000000000D+01
 S   1 1.00       0.000000000000
      0.2851851000D+01  0.1000000000D+01
 S   1 1.00       0.000000000000
      0.1531616000D+01  0.1000000000D+01
 S   1 1.00       0.000000000000
      0.6162030000D+00  0.1000000000D+01
 S   1 1.00       0.000000000000
      0.2794940000D+00  0.1000000000D+01
 S   1 1.00       0.000000000000
      0.5725300000D-01  0.1000000000D+01
 S   1 1.00       0.000000000000
      0.2344300000D-01  0.1000000000D+01
 P   5 1.00       0.000000000000
      0.2906845100D+04  0.2490724940D-02
      0.6944005300D+03  0.2071830291D-01
      0.2246347900D+03  0.9662880620D-01
      0.8052052600D+02  0.3141426831D+00
      0.2408021100D+02  0.7137059101D+00
 P   1 1.00       0.000000000000
      0.1407758000D+02  0.1000000000D+01
 P   1 1.00       0.000000000000
      0.8265846000D+01  0.1000000000D+01
 P   1 1.00       0.000000000000
      0.3423607000D+01  0.1000000000D+01
 P   1 1.00       0.000000000000
      0.1708417000D+01  0.1000000000D+01
 P   1 1.00       0.000000000000
      0.6550460000D+00  0.1000000000D+01
 P   1 1.00       0.000000000000
      0.2837550000D+00  0.1000000000D+01
 P   1 1.00       0.000000000000
      0.1018140000D+00  0.1000000000D+01
 P   1 1.00       0.000000000000
      0.3053500000D-01  0.1000000000D+01
 D   6 1.00       0.000000000000
      0.4490195300D+03  0.1244413406D-03
      0.1563569500D+03  0.8014022332D-03
      0.6024243900D+02  0.4422645243D-02
      0.1777231700D+02  0.6317886860D-01
      0.1045430400D+02 -0.2224463627D+00
      0.3583433000D+01  0.1107027677D+01
 D   1 1.00       0.000000000000
      0.1763724000D+01  0.1000000000D+01
 D   1 1.00       0.000000000000
      0.7840300000D+00  0.1000000000D+01
 D   1 1.00       0.000000000000
      0.2761270000D+00  0.1000000000D+01
 D   1 1.00       0.000000000000
      0.8698000000D-01  0.1000000000D+01
 F   5 1.00       0.000000000000
      0.1052879300D+03  0.5015876177D-03
      0.3510118100D+02  0.5077474656D-02
      0.1456413800D+02  0.2035609748D-01
      0.4651885000D+01  0.3012803625D+00
      0.2255973000D+01  0.7475437460D+00
 F   1 1.00       0.000000000000
      0.1010274000D+01  0.1000000000D+01
 F   1 1.00       0.000000000000
      0.4116800000D+00  0.1000000000D+01
 F   1 1.00       0.000000000000
      0.1441200000D+00  0.1000000000D+01
 G   4 1.00       0.000000000000
      0.1052879300D+03  0.1132460043D-02
      0.3510118100D+02  0.1513528715D-01
      0.1456413800D+02  0.1648266662D+00
      0.4651885000D+01  0.9155402153D+00
 G   1 1.00       0.000000000000
      0.2255973000D+01  0.1000000000D+01
 G   1 1.00       0.000000000000
      0.1010274000D+01  0.1000000000D+01
 ****
      2 0
 S   6 1.00       0.000000000000
      0.2703238263D+05  0.5722733521D-03
      0.4052387139D+04  0.4435323349D-02
      0.9223272271D+03  0.2302010771D-01
      0.2612407099D+03  0.9282249067D-01
      0.8535464135D+02  0.2937850001D+00
      0.3103503524D+02  0.6740160450D+00
 S   2 1.00       0.000000000000
      0.1226086073D+02  0.6383993703D+00
      0.4998707601D+01  0.3953458713D+00
 S   1 1.00       0.000000000000
      0.1170310816D+01  0.1000000000D+01
 S   1 1.00       0.000000000000
      0.4647474099D+00  0.1000000000D+01
 S   1 1.00       0.000000000000
      0.1850453636D+00  0.1000000000D+01
 P   4 1.00       0.000000000000
      0.6327495480D+02  0.1201833222D-01
      0.1462704938D+02  0.8300542179D-01
      0.4450122346D+01  0.3199174393D+00
      0.1527579965D+01  0.7071554292D+00
 P   1 1.00       0.000000000000
      0.5293511794D+00  0.1000000000D+01
 P   1 1.00       0.000000000000
      0.1747842127D+00  0.1000000000D+01
 D   1 1.00       0.000000000000
      0.2314000000D+01  0.1000000000D+01
 D   1 1.00       0.000000000000
      0.6450000000D+00  0.1000000000D+01
 F   1 1.00       0.000000000000
      0.1428000000D+01  0.1000000000D+01
 ****
      3 0
 S   6 1.00       0.000000000000
      0.2703238263D+05  0.5722733521D-03
      0.4052387139D+04  0.4435323349D-02
      0.9223272271D+03  0.2302010771D-01
      0.2612407099D+03  0.9282249067D-01
      0.8535464135D+02  0.2937850001D+00
      0.3103503524D+02  0.6740160450D+00
 S   2 1.00       0.000000000000
      0.1226086073D+02  0.6383993703D+00
      0.4998707601D+01  0.3953458713D+00
 S   1 1.00       0.000000000000
      0.1170310816D+01  0.1000000000D+01
 S   1 1.00       0.000000000000
      0.4647474099D+00  0.1000000000D+01
 S   1 1.00       0.000000000000
      0.1850453636D+00  0.1000000000D+01
 P   4 1.00       0.000000000000
      0.6327495480D+02  0.1201833222D-01
      0.1462704938D+02  0.8300542179D-01
      0.4450122346D+01  0.3199174393D+00
      0.1527579965D+01  0.7071554292D+00
 P   1 1.00       0.000000000000
      0.5293511794D+00  0.1000000000D+01
 P   1 1.00       0.000000000000
      0.1747842127D+00  0.1000000000D+01
 D   1 1.00       0.000000000000
      0.2314000000D+01  0.1000000000D+01
 D   1 1.00       0.000000000000
      0.6450000000D+00  0.1000000000D+01
 F   1 1.00       0.000000000000
      0.1428000000D+01  0.1000000000D+01
 ****
      4 0
 S   7 1.00       0.000000000000
      0.6950799094D+05  0.5145738965D-03
      0.1042615688D+05  0.3978134481D-02
      0.2373233406D+04  0.2045617867D-01
      0.6715642007D+03  0.8014810289D-01
      0.2184199979D+03  0.2345477032D+00
      0.7757224971D+02  0.4454336858D+00
      0.2888881528D+02  0.3546684250D+00
 S   3 1.00       0.000000000000
      0.1271052718D+03  0.1129368805D+00
      0.3933958296D+02  0.4837351421D+00
      0.7674067999D+01 -0.1229229739D+01
 S   2 1.00       0.000000000000
      0.3874562763D+01  0.6729682164D+00
      0.1838583257D+01  0.3495605141D+00
 S   1 1.00       0.000000000000
      0.5022905754D+00  0.1000000000D+01
 S   1 1.00       0.000000000000
      0.1796272342D+00  0.1000000000D+01
 P   5 1.00       0.000000000000
      0.6665042328D+03  0.3350250820D-02
      0.1576424169D+03  0.2676397041D-01
      0.5026252098D+02  0.1236268236D+00
      0.1853607811D+02  0.3584578792D+00
      0.7294053278D+01  0.6167729635D+00
 P   1 1.00       0.000000000000
      0.2943324899D+01  0.1000000000D+01
 P   1 1.00       0.000000000000
      0.1040497082D+01  0.1000000000D+01
 P   1 1.00       0.000000000000
      0.3845641508D+00  0.1000000000D+01
 P   1 1.00       0.000000000000
      0.1306964273D+00  0.1000000000D+01
 D   2 1.00       0.000000000000
      0.4610000000D+01  0.1826583505D+00
      0.1011000000D+01  0.9132917523D+00
 D   1 1.00       0.000000000000
      0.3390000000D+00  0.1000000000D+01
 F   1 1.00       0.000000000000
      0.7060000000D+00  0.1000000000D+01
 ****
      5 0
 S   7 1.00       0.000000000000
      0.6950799094D+05  0.5145738965D-03
      0.1042615688D+05  0.3978134481D-02
      0.2373233406D+04  0.2045617867D-01
      0.6715642007D+03  0.8014810289D-01
      0.2184199979D+03  0.2345477032D+00
      0.7757224971D+02  0.4454336858D+00
      0.2888881528D+02  0.3546684250D+00
 S   3 1.00       0.000000000000
      0.1271052718D+03  0.1129368805D+00
      0.3933958296D+02  0.4837351421D+00
      0.7674067999D+01 -0.1229229739D+01
 S   2 1.00       0.000000000000
      0.3874562763D+01  0.6729682164D+00
      0.1838583257D+01  0.3495605141D+00
 S   1 1.00       0.000000000000
      0.5022905754D+00  0.1000000000D+01
 S   1 1.00       0.000000000000
      0.1796272342D+00  0.1000000000D+01
 P   5 1.00       0.000000000000
      0.6665042328D+03  0.3350250820D-02
      0.1576424169D+03  0.2676397041D-01
      0.5026252098D+02  0.1236268236D+00
      0.1853607811D+02  0.3584578792D+00
      0.7294053278D+01  0.6167729635D+00
 P   1 1.00       0.000000000000
      0.2943324899D+01  0.1000000000D+01
 P   1 1.00       0.000000000000
      0.1040497082D+01  0.1000000000D+01
 P   1 1.00       0.000000000000
      0.3845641508D+00  0.1000000000D+01
 P   1 1.00       0.000000000000
      0.1306964273D+00  0.1000000000D+01
 D   2 1.00       0.000000000000
      0.4610000000D+01  0.1826583505D+00
      0.1011000000D+01  0.9132917523D+00
 D   1 1.00       0.000000000000
      0.3390000000D+00  0.1000000000D+01
 F   1 1.00       0.000000000000
      0.7060000000D+00  0.1000000000D+01
 ****
      6 0
 S   3 1.00       0.000000000000
      0.1746696550D+03  0.2587000790D-02
      0.1269576800D+02  0.6231301902D-01
      0.2917834000D+01 -0.1042158318D+01
 S   1 1.00       0.000000000000
      0.6708400000D+00  0.1000000000D+01
 S   1 1.00       0.000000000000
      0.2991120000D+00  0.1000000000D+01
 S   1 1.00       0.000000000000
      0.1314020000D+00  0.1000000000D+01
 P   3 1.00       0.000000000000
      0.1988722100D+02  0.2334600819D-01
      0.3776172000D+01 -0.2246210788D+00
      0.1211516000D+01  0.1137596399D+01
 P   1 1.00       0.000000000000
      0.5384990000D+00  0.1000000000D+01
 P   1 1.00       0.000000000000
      0.2295750000D+00  0.1000000000D+01
 P   1 1.00       0.000000000000
      0.9510300000D-01  0.1000000000D+01
 D   1 1.00       0.000000000000
      0.1450900000D+01  0.1000000000D+01
 D   1 1.00       0.000000000000
      0.4385000000D+00  0.1000000000D+01
 D   1 1.00       0.000000000000
      0.1325000000D+00  0.1000000000D+01
 F   1 1.00       0.000000000000
      0.9305000000D+00  0.1000000000D+01
 ****
      7 0
 S   3 1.00       0.000000000000
      0.1746696550D+03  0.2587000790D-02
      0.1269576800D+02  0.6231301902D-01
      0.2917834000D+01 -0.1042158318D+01
 S   1 1.00       0.000000000000
      0.6708400000D+00  0.1000000000D+01
 S   1 1.00       0.000000000000
      0.2991120000D+00  0.1000000000D+01
 S   1 1.00       0.000000000000
      0.1314020000D+00  0.1000000000D+01
 P   3 1.00       0.000000000000
      0.1988722100D+02  0.2334600819D-01
      0.3776172000D+01 -0.2246210788D+00
      0.1211516000D+01  0.1137596399D+01
 P   1 1.00       0.000000000000
      0.5384990000D+00  0.1000000000D+01
 P   1 1.00       0.000000000000
      0.2295750000D+00  0.1000000000D+01
 P   1 1.00       0.000000000000
      0.9510300000D-01  0.1000000000D+01
 D   1 1.00       0.000000000000
      0.1450900000D+01  0.1000000000D+01
 D   1 1.00       0.000000000000
      0.4385000000D+00  0.1000000000D+01
 D   1 1.00       0.000000000000
      0.1325000000D+00  0.1000000000D+01
 F   1 1.00       0.000000000000
      0.9305000000D+00  0.1000000000D+01
 ****

 AO basis set (Overlap normalization):
 Atom U1       Shell     1 S   3     bf    1 -     1          0.000000000000         -0.000000000000          0.482150242310
      0.1209808200D+05  0.2884168448D-01
      0.1833757300D+04  0.2180092033D+00
      0.3516863200D+03  0.8395192276D+00
 Atom U1       Shell     2 S   3     bf    2 -     2          0.000000000000         -0.000000000000          0.482150242310
      0.6090582200D+02  0.9338504807D-01
      0.3551508600D+02 -0.4593840999D+00
      0.2089122700D+02  0.1355508280D+01
 Atom U1       Shell     3 S   1     bf    3 -     3          0.000000000000         -0.000000000000          0.482150242310
      0.1043142600D+03  0.1000000000D+01
 Atom U1       Shell     4 S   1     bf    4 -     4          0.000000000000         -0.000000000000          0.482150242310
      0.1018464700D+02  0.1000000000D+01
 Atom U1       Shell     5 S   1     bf    5 -     5          0.000000000000         -0.000000000000          0.482150242310
      0.2851851000D+01  0.1000000000D+01
 Atom U1       Shell     6 S   1     bf    6 -     6          0.000000000000         -0.000000000000          0.482150242310
      0.1531616000D+01  0.1000000000D+01
 Atom U1       Shell     7 S   1     bf    7 -     7          0.000000000000         -0.000000000000          0.482150242310
      0.6162030000D+00  0.1000000000D+01
 Atom U1       Shell     8 S   1     bf    8 -     8          0.000000000000         -0.000000000000          0.482150242310
      0.2794940000D+00  0.1000000000D+01
 Atom U1       Shell     9 S   1     bf    9 -     9          0.000000000000         -0.000000000000          0.482150242310
      0.5725300000D-01  0.1000000000D+01
 Atom U1       Shell    10 S   1     bf   10 -    10          0.000000000000         -0.000000000000          0.482150242310
      0.2344300000D-01  0.1000000000D+01
 Atom U1       Shell    11 P   5     bf   11 -    13          0.000000000000         -0.000000000000          0.482150242310
      0.2906845100D+04  0.2490724940D-02
      0.6944005300D+03  0.2071830291D-01
      0.2246347900D+03  0.9662880620D-01
      0.8052052600D+02  0.3141426831D+00
      0.2408021100D+02  0.7137059101D+00
 Atom U1       Shell    12 P   1     bf   14 -    16          0.000000000000         -0.000000000000          0.482150242310
      0.1407758000D+02  0.1000000000D+01
 Atom U1       Shell    13 P   1     bf   17 -    19          0.000000000000         -0.000000000000          0.482150242310
      0.8265846000D+01  0.1000000000D+01
 Atom U1       Shell    14 P   1     bf   20 -    22          0.000000000000         -0.000000000000          0.482150242310
      0.3423607000D+01  0.1000000000D+01
 Atom U1       Shell    15 P   1     bf   23 -    25          0.000000000000         -0.000000000000          0.482150242310
      0.1708417000D+01  0.1000000000D+01
 Atom U1       Shell    16 P   1     bf   26 -    28          0.000000000000         -0.000000000000          0.482150242310
      0.6550460000D+00  0.1000000000D+01
 Atom U1       Shell    17 P   1     bf   29 -    31          0.000000000000         -0.000000000000          0.482150242310
      0.2837550000D+00  0.1000000000D+01
 Atom U1       Shell    18 P   1     bf   32 -    34          0.000000000000         -0.000000000000          0.482150242310
      0.1018140000D+00  0.1000000000D+01
 Atom U1       Shell    19 P   1     bf   35 -    37          0.000000000000         -0.000000000000          0.482150242310
      0.3053500000D-01  0.1000000000D+01
 Atom U1       Shell    20 D   6     bf   38 -    42          0.000000000000         -0.000000000000          0.482150242310
      0.4490195300D+03  0.1244413406D-03
      0.1563569500D+03  0.8014022332D-03
      0.6024243900D+02  0.4422645243D-02
      0.1777231700D+02  0.6317886860D-01
      0.1045430400D+02 -0.2224463627D+00
      0.3583433000D+01  0.1107027677D+01
 Atom U1       Shell    21 D   1     bf   43 -    47          0.000000000000         -0.000000000000          0.482150242310
      0.1763724000D+01  0.1000000000D+01
 Atom U1       Shell    22 D   1     bf   48 -    52          0.000000000000         -0.000000000000          0.482150242310
      0.7840300000D+00  0.1000000000D+01
 Atom U1       Shell    23 D   1     bf   53 -    57          0.000000000000         -0.000000000000          0.482150242310
      0.2761270000D+00  0.1000000000D+01
 Atom U1       Shell    24 D   1     bf   58 -    62          0.000000000000         -0.000000000000          0.482150242310
      0.8698000000D-01  0.1000000000D+01
 Atom U1       Shell    25 F   5     bf   63 -    69          0.000000000000         -0.000000000000          0.482150242310
      0.1052879300D+03  0.5015876177D-03
      0.3510118100D+02  0.5077474656D-02
      0.1456413800D+02  0.2035609748D-01
      0.4651885000D+01  0.3012803625D+00
      0.2255973000D+01  0.7475437460D+00
 Atom U1       Shell    26 F   1     bf   70 -    76          0.000000000000         -0.000000000000          0.482150242310
      0.1010274000D+01  0.1000000000D+01
 Atom U1       Shell    27 F   1     bf   77 -    83          0.000000000000         -0.000000000000          0.482150242310
      0.4116800000D+00  0.1000000000D+01
 Atom U1       Shell    28 F   1     bf   84 -    90          0.000000000000         -0.000000000000          0.482150242310
      0.1441200000D+00  0.1000000000D+01
 Atom U1       Shell    29 G   4     bf   91 -    99          0.000000000000         -0.000000000000          0.482150242310
      0.1052879300D+03  0.1132460043D-02
      0.3510118100D+02  0.1513528715D-01
      0.1456413800D+02  0.1648266662D+00
      0.4651885000D+01  0.9155402153D+00
 Atom U1       Shell    30 G   1     bf  100 -   108          0.000000000000         -0.000000000000          0.482150242310
      0.2255973000D+01  0.1000000000D+01
 Atom U1       Shell    31 G   1     bf  109 -   117          0.000000000000         -0.000000000000          0.482150242310
      0.1010274000D+01  0.1000000000D+01
 Atom O2       Shell    32 S   6     bf  118 -   118         -3.298766487431          0.000000000000          0.066819501445
      0.2703238263D+05  0.5722733521D-03
      0.4052387139D+04  0.4435323349D-02
      0.9223272271D+03  0.2302010771D-01
      0.2612407099D+03  0.9282249067D-01
      0.8535464135D+02  0.2937850001D+00
      0.3103503524D+02  0.6740160450D+00
 Atom O2       Shell    33 S   2     bf  119 -   119         -3.298766487431          0.000000000000          0.066819501445
      0.1226086073D+02  0.6383993703D+00
      0.4998707601D+01  0.3953458713D+00
 Atom O2       Shell    34 S   1     bf  120 -   120         -3.298766487431          0.000000000000          0.066819501445
      0.1170310816D+01  0.1000000000D+01
 Atom O2       Shell    35 S   1     bf  121 -   121         -3.298766487431          0.000000000000          0.066819501445
      0.4647474099D+00  0.1000000000D+01
 Atom O2       Shell    36 S   1     bf  122 -   122         -3.298766487431          0.000000000000          0.066819501445
      0.1850453636D+00  0.1000000000D+01
 Atom O2       Shell    37 P   4     bf  123 -   125         -3.298766487431          0.000000000000          0.066819501445
      0.6327495480D+02  0.1201833222D-01
      0.1462704938D+02  0.8300542179D-01
      0.4450122346D+01  0.3199174393D+00
      0.1527579965D+01  0.7071554292D+00
 Atom O2       Shell    38 P   1     bf  126 -   128         -3.298766487431          0.000000000000          0.066819501445
      0.5293511794D+00  0.1000000000D+01
 Atom O2       Shell    39 P   1     bf  129 -   131         -3.298766487431          0.000000000000          0.066819501445
      0.1747842127D+00  0.1000000000D+01
 Atom O2       Shell    40 D   1     bf  132 -   136         -3.298766487431          0.000000000000          0.066819501445
      0.2314000000D+01  0.1000000000D+01
 Atom O2       Shell    41 D   1     bf  137 -   141         -3.298766487431          0.000000000000          0.066819501445
      0.6450000000D+00  0.1000000000D+01
 Atom O2       Shell    42 F   1     bf  142 -   148         -3.298766487431          0.000000000000          0.066819501445
      0.1428000000D+01  0.1000000000D+01
 Atom O3       Shell    43 S   6     bf  149 -   149          3.298766487431         -0.000000000000          0.066819501445
      0.2703238263D+05  0.5722733521D-03
      0.4052387139D+04  0.4435323349D-02
      0.9223272271D+03  0.2302010771D-01
      0.2612407099D+03  0.9282249067D-01
      0.8535464135D+02  0.2937850001D+00
      0.3103503524D+02  0.6740160450D+00
 Atom O3       Shell    44 S   2     bf  150 -   150          3.298766487431         -0.000000000000          0.066819501445
      0.1226086073D+02  0.6383993703D+00
      0.4998707601D+01  0.3953458713D+00
 Atom O3       Shell    45 S   1     bf  151 -   151          3.298766487431         -0.000000000000          0.066819501445
      0.1170310816D+01  0.1000000000D+01
 Atom O3       Shell    46 S   1     bf  152 -   152          3.298766487431         -0.000000000000          0.066819501445
      0.4647474099D+00  0.1000000000D+01
 Atom O3       Shell    47 S   1     bf  153 -   153          3.298766487431         -0.000000000000          0.066819501445
      0.1850453636D+00  0.1000000000D+01
 Atom O3       Shell    48 P   4     bf  154 -   156          3.298766487431         -0.000000000000          0.066819501445
      0.6327495480D+02  0.1201833222D-01
      0.1462704938D+02  0.8300542179D-01
      0.4450122346D+01  0.3199174393D+00
      0.1527579965D+01  0.7071554292D+00
 Atom O3       Shell    49 P   1     bf  157 -   159          3.298766487431         -0.000000000000          0.066819501445
      0.5293511794D+00  0.1000000000D+01
 Atom O3       Shell    50 P   1     bf  160 -   162          3.298766487431         -0.000000000000          0.066819501445
      0.1747842127D+00  0.1000000000D+01
 Atom O3       Shell    51 D   1     bf  163 -   167          3.298766487431         -0.000000000000          0.066819501445
      0.2314000000D+01  0.1000000000D+01
 Atom O3       Shell    52 D   1     bf  168 -   172          3.298766487431         -0.000000000000          0.066819501445
      0.6450000000D+00  0.1000000000D+01
 Atom O3       Shell    53 F   1     bf  173 -   179          3.298766487431         -0.000000000000          0.066819501445
      0.1428000000D+01  0.1000000000D+01
 Atom Cl4      Shell    54 S   7     bf  180 -   180          0.000000000000          3.820158231482          3.333814307754
      0.6950799094D+05  0.5145738965D-03
      0.1042615688D+05  0.3978134481D-02
      0.2373233406D+04  0.2045617867D-01
      0.6715642007D+03  0.8014810289D-01
      0.2184199979D+03  0.2345477032D+00
      0.7757224971D+02  0.4454336858D+00
      0.2888881528D+02  0.3546684250D+00
 Atom Cl4      Shell    55 S   3     bf  181 -   181          0.000000000000          3.820158231482          3.333814307754
      0.1271052718D+03  0.1129368805D+00
      0.3933958296D+02  0.4837351421D+00
      0.7674067999D+01 -0.1229229739D+01
 Atom Cl4      Shell    56 S   2     bf  182 -   182          0.000000000000          3.820158231482          3.333814307754
      0.3874562763D+01  0.6729682164D+00
      0.1838583257D+01  0.3495605141D+00
 Atom Cl4      Shell    57 S   1     bf  183 -   183          0.000000000000          3.820158231482          3.333814307754
      0.5022905754D+00  0.1000000000D+01
 Atom Cl4      Shell    58 S   1     bf  184 -   184          0.000000000000          3.820158231482          3.333814307754
      0.1796272342D+00  0.1000000000D+01
 Atom Cl4      Shell    59 P   5     bf  185 -   187          0.000000000000          3.820158231482          3.333814307754
      0.6665042328D+03  0.3350250820D-02
      0.1576424169D+03  0.2676397041D-01
      0.5026252098D+02  0.1236268236D+00
      0.1853607811D+02  0.3584578792D+00
      0.7294053278D+01  0.6167729635D+00
 Atom Cl4      Shell    60 P   1     bf  188 -   190          0.000000000000          3.820158231482          3.333814307754
      0.2943324899D+01  0.1000000000D+01
 Atom Cl4      Shell    61 P   1     bf  191 -   193          0.000000000000          3.820158231482          3.333814307754
      0.1040497082D+01  0.1000000000D+01
 Atom Cl4      Shell    62 P   1     bf  194 -   196          0.000000000000          3.820158231482          3.333814307754
      0.3845641508D+00  0.1000000000D+01
 Atom Cl4      Shell    63 P   1     bf  197 -   199          0.000000000000          3.820158231482          3.333814307754
      0.1306964273D+00  0.1000000000D+01
 Atom Cl4      Shell    64 D   2     bf  200 -   204          0.000000000000          3.820158231482          3.333814307754
      0.4610000000D+01  0.1826583505D+00
      0.1011000000D+01  0.9132917523D+00
 Atom Cl4      Shell    65 D   1     bf  205 -   209          0.000000000000          3.820158231482          3.333814307754
      0.3390000000D+00  0.1000000000D+01
 Atom Cl4      Shell    66 F   1     bf  210 -   216          0.000000000000          3.820158231482          3.333814307754
      0.7060000000D+00  0.1000000000D+01
 Atom Cl5      Shell    67 S   7     bf  217 -   217         -0.000000000000         -3.820158231482          3.333814307754
      0.6950799094D+05  0.5145738965D-03
      0.1042615688D+05  0.3978134481D-02
      0.2373233406D+04  0.2045617867D-01
      0.6715642007D+03  0.8014810289D-01
      0.2184199979D+03  0.2345477032D+00
      0.7757224971D+02  0.4454336858D+00
      0.2888881528D+02  0.3546684250D+00
 Atom Cl5      Shell    68 S   3     bf  218 -   218         -0.000000000000         -3.820158231482          3.333814307754
      0.1271052718D+03  0.1129368805D+00
      0.3933958296D+02  0.4837351421D+00
      0.7674067999D+01 -0.1229229739D+01
 Atom Cl5      Shell    69 S   2     bf  219 -   219         -0.000000000000         -3.820158231482          3.333814307754
      0.3874562763D+01  0.6729682164D+00
      0.1838583257D+01  0.3495605141D+00
 Atom Cl5      Shell    70 S   1     bf  220 -   220         -0.000000000000         -3.820158231482          3.333814307754
      0.5022905754D+00  0.1000000000D+01
 Atom Cl5      Shell    71 S   1     bf  221 -   221         -0.000000000000         -3.820158231482          3.333814307754
      0.1796272342D+00  0.1000000000D+01
 Atom Cl5      Shell    72 P   5     bf  222 -   224         -0.000000000000         -3.820158231482          3.333814307754
      0.6665042328D+03  0.3350250820D-02
      0.1576424169D+03  0.2676397041D-01
      0.5026252098D+02  0.1236268236D+00
      0.1853607811D+02  0.3584578792D+00
      0.7294053278D+01  0.6167729635D+00
 Atom Cl5      Shell    73 P   1     bf  225 -   227         -0.000000000000         -3.820158231482          3.333814307754
      0.2943324899D+01  0.1000000000D+01
 Atom Cl5      Shell    74 P   1     bf  228 -   230         -0.000000000000         -3.820158231482          3.333814307754
      0.1040497082D+01  0.1000000000D+01
 Atom Cl5      Shell    75 P   1     bf  231 -   233         -0.000000000000         -3.820158231482          3.333814307754
      0.3845641508D+00  0.1000000000D+01
 Atom Cl5      Shell    76 P   1     bf  234 -   236         -0.000000000000         -3.820158231482          3.333814307754
      0.1306964273D+00  0.1000000000D+01
 Atom Cl5      Shell    77 D   2     bf  237 -   241         -0.000000000000         -3.820158231482          3.333814307754
      0.4610000000D+01  0.1826583505D+00
      0.1011000000D+01  0.9132917523D+00
 Atom Cl5      Shell    78 D   1     bf  242 -   246         -0.000000000000         -3.820158231482          3.333814307754
      0.3390000000D+00  0.1000000000D+01
 Atom Cl5      Shell    79 F   1     bf  247 -   253         -0.000000000000         -3.820158231482          3.333814307754
      0.7060000000D+00  0.1000000000D+01
 Atom Ar6      Shell    80 S   3     bf  254 -   254         -0.000000000000         -3.772725644400         -4.410461688313
      0.1746696550D+03  0.2587000790D-02
      0.1269576800D+02  0.6231301902D-01
      0.2917834000D+01 -0.1042158318D+01
 Atom Ar6      Shell    81 S   1     bf  255 -   255         -0.000000000000         -3.772725644400         -4.410461688313
      0.6708400000D+00  0.1000000000D+01
 Atom Ar6      Shell    82 S   1     bf  256 -   256         -0.000000000000         -3.772725644400         -4.410461688313
      0.2991120000D+00  0.1000000000D+01
 Atom Ar6      Shell    83 S   1     bf  257 -   257         -0.000000000000         -3.772725644400         -4.410461688313
      0.1314020000D+00  0.1000000000D+01
 Atom Ar6      Shell    84 P   3     bf  258 -   260         -0.000000000000         -3.772725644400         -4.410461688313
      0.1988722100D+02  0.2334600819D-01
      0.3776172000D+01 -0.2246210788D+00
      0.1211516000D+01  0.1137596399D+01
 Atom Ar6      Shell    85 P   1     bf  261 -   263         -0.000000000000         -3.772725644400         -4.410461688313
      0.5384990000D+00  0.1000000000D+01
 Atom Ar6      Shell    86 P   1     bf  264 -   266         -0.000000000000         -3.772725644400         -4.410461688313
      0.2295750000D+00  0.1000000000D+01
 Atom Ar6      Shell    87 P   1     bf  267 -   269         -0.000000000000         -3.772725644400         -4.410461688313
      0.9510300000D-01  0.1000000000D+01
 Atom Ar6      Shell    88 D   1     bf  270 -   274         -0.000000000000         -3.772725644400         -4.410461688313
      0.1450900000D+01  0.1000000000D+01
 Atom Ar6      Shell    89 D   1     bf  275 -   279         -0.000000000000         -3.772725644400         -4.410461688313
      0.4385000000D+00  0.1000000000D+01
 Atom Ar6      Shell    90 D   1     bf  280 -   284         -0.000000000000         -3.772725644400         -4.410461688313
      0.1325000000D+00  0.1000000000D+01
 Atom Ar6      Shell    91 F   1     bf  285 -   291         -0.000000000000         -3.772725644400         -4.410461688313
      0.9305000000D+00  0.1000000000D+01
 Atom Ar7      Shell    92 S   3     bf  292 -   292          0.000000000000          3.772725644400         -4.410461688313
      0.1746696550D+03  0.2587000790D-02
      0.1269576800D+02  0.6231301902D-01
      0.2917834000D+01 -0.1042158318D+01
 Atom Ar7      Shell    93 S   1     bf  293 -   293          0.000000000000          3.772725644400         -4.410461688313
      0.6708400000D+00  0.1000000000D+01
 Atom Ar7      Shell    94 S   1     bf  294 -   294          0.000000000000          3.772725644400         -4.410461688313
      0.2991120000D+00  0.1000000000D+01
 Atom Ar7      Shell    95 S   1     bf  295 -   295          0.000000000000          3.772725644400         -4.410461688313
      0.1314020000D+00  0.1000000000D+01
 Atom Ar7      Shell    96 P   3     bf  296 -   298          0.000000000000          3.772725644400         -4.410461688313
      0.1988722100D+02  0.2334600819D-01
      0.3776172000D+01 -0.2246210788D+00
      0.1211516000D+01  0.1137596399D+01
 Atom Ar7      Shell    97 P   1     bf  299 -   301          0.000000000000          3.772725644400         -4.410461688313
      0.5384990000D+00  0.1000000000D+01
 Atom Ar7      Shell    98 P   1     bf  302 -   304          0.000000000000          3.772725644400         -4.410461688313
      0.2295750000D+00  0.1000000000D+01
 Atom Ar7      Shell    99 P   1     bf  305 -   307          0.000000000000          3.772725644400         -4.410461688313
      0.9510300000D-01  0.1000000000D+01
 Atom Ar7      Shell   100 D   1     bf  308 -   312          0.000000000000          3.772725644400         -4.410461688313
      0.1450900000D+01  0.1000000000D+01
 Atom Ar7      Shell   101 D   1     bf  313 -   317          0.000000000000          3.772725644400         -4.410461688313
      0.4385000000D+00  0.1000000000D+01
 Atom Ar7      Shell   102 D   1     bf  318 -   322          0.000000000000          3.772725644400         -4.410461688313
      0.1325000000D+00  0.1000000000D+01
 Atom Ar7      Shell   103 F   1     bf  323 -   329          0.000000000000          3.772725644400         -4.410461688313
      0.9305000000D+00  0.1000000000D+01
 Effective core potential in the form of general ECP input:
      1 0
 U1-ECP   5 60
 H component
  1
  2        1.0000000        0.00000000    0.00000000
 S-H projection
  1
  2       16.4140387      536.51662778    0.00000000
 P-H projection
  1
  2        9.0605561      169.54492465    0.00000000
 D-H projection
  1
  2        8.8318320      142.61559837    0.00000000
 F-H projection
  1
  2        7.0185163       60.39307602    0.00000000
 G-H projection
  1
  2       12.8040884      -60.12998958    0.00000000
      6 0
 Ar6-ECP   4 10
 G component
  1
  2        1.0000000        0.00000000    0.00000000
 S-G projection
  2
  2       10.2617210       68.66778801    0.00000000
  2        3.9527250       24.04276629    0.00000000
 P-G projection
  2
  2        5.3927140       27.73076331    0.00000000
  2        2.6999670        4.04545904    0.00000000
 D-G projection
  2
  2        8.0862350       -8.13747696    0.00000000
  2        4.0166320       -1.66452808    0.00000000
 F-G projection
  1
  2        5.2084590       -3.40009845    0.00000000
      7 0
 Ar7-ECP   4 10
 G component
  1
  2        1.0000000        0.00000000    0.00000000
 S-G projection
  2
  2       10.2617210       68.66778801    0.00000000
  2        3.9527250       24.04276629    0.00000000
 P-G projection
  2
  2        5.3927140       27.73076331    0.00000000
  2        2.6999670        4.04545904    0.00000000
 D-G projection
  2
  2        8.0862350       -8.13747696    0.00000000
  2        4.0166320       -1.66452808    0.00000000
 F-G projection
  1
  2        5.2084590       -3.40009845    0.00000000
 
 There are   148 symmetry adapted cartesian basis functions of A1  symmetry.
 There are    56 symmetry adapted cartesian basis functions of A2  symmetry.
 There are    87 symmetry adapted cartesian basis functions of B1  symmetry.
 There are   105 symmetry adapted cartesian basis functions of B2  symmetry.
 There are   117 symmetry adapted basis functions of A1  symmetry.
 There are    50 symmetry adapted basis functions of A2  symmetry.
 There are    74 symmetry adapted basis functions of B1  symmetry.
 There are    88 symmetry adapted basis functions of B2  symmetry.
   329 basis functions,   627 primitive gaussians,   396 cartesian basis functions
    49 alpha electrons       49 beta electrons
       nuclear repulsion energy       709.8776197274 Hartrees.
 IExCor= 1009 DFT=T Ex+Corr=PBE1PBE ExCW=0 ScaHFX=  0.250000
 ScaDFX=  0.750000  0.750000  1.000000  1.000000 ScalE2=  1.000000  1.000000
 IRadAn=      5 IRanWt=     -1 IRanGd=            0 ICorTp=0 IEmpDi=141
 NAtoms=    7 NActive=    7 NUniq=    4 SFac= 3.06D+00 NAtFMM=   60 NAOKFM=F Big=F
 Integral buffers will be    131072 words long.
 Regular integral format.
 Two-electron integral symmetry is turned on.
 R6Disp:  Grimme-D3(BJ) Dispersion energy=       -0.0097452280 Hartrees.
 Nuclear repulsion after empirical dispersion term =      709.8678744995 Hartrees.
 Leave Link  301 at Mon Jan 23 19:06:43 2023, MaxMem=  1048576000 cpu:               0.3 elap:               0.1
 (Enter /home/pcmt/gaussian/g16.C.01/g16/l302.exe)
 NPDir=0 NMtPBC=     1 NCelOv=     1 NCel=       1 NClECP=     1 NCelD=      1
         NCelK=      1 NCelE2=     1 NClLst=     1 CellRange=     0.0.
 One-electron integrals computed using PRISM.
 One-electron integral symmetry used in STVInt
   4 Symmetry operations used in ECPInt.
 ECPInt:  NShTT=    5356 NPrTT=   15928 LenC2=    5126 LenP2D=   11806.
 LDataN:  DoStor=T MaxTD1= 9 Len=  602
 NBasis=   329 RedAO= T EigKep=  6.96D-04  NBF=   117    50    74    88
 NBsUse=   329 1.00D-06 EigRej= -1.00D+00 NBFU=   117    50    74    88
 Precomputing XC quadrature grid using
 IXCGrd= 4 IRadAn=           5 IRanWt=          -1 IRanGd=           0 AccXCQ= 0.00D+00.
 Defaulting to unpruned grid for atomic number  92.
 Generated NRdTot=       0 NPtTot=           0 NUsed=           0 NTot=          32
 NSgBfM=   391   391   391   391   391 MxSgAt=     7 MxSgA2=     7.
 Leave Link  302 at Mon Jan 23 19:06:45 2023, MaxMem=  1048576000 cpu:               5.4 elap:               2.0
 (Enter /home/pcmt/gaussian/g16.C.01/g16/l303.exe)
 DipDrv:  MaxL=1.
 Leave Link  303 at Mon Jan 23 19:06:45 2023, MaxMem=  1048576000 cpu:               0.2 elap:               0.1
 (Enter /home/pcmt/gaussian/g16.C.01/g16/l308.exe)
 Leave Link  308 at Mon Jan 23 19:06:45 2023, MaxMem=  1048576000 cpu:               0.3 elap:               0.1
 (Enter /home/pcmt/gaussian/g16.C.01/g16/l401.exe)
 Initial guess from the checkpoint file:  "tddft-s1-uo2_cl2_2ar.pbe0-d3.freq.chk"
 B after Tr=     0.000000   -0.000000   -0.000000
         Rot=    1.000000    0.000000    0.000000    0.000000 Ang=   0.00 deg.
 Guess basis will be translated and rotated to current coordinates.
 JPrj=2 DoOrth=T DoCkMO=T.
 Initial guess orbital symmetries:
       Occupied  (A1) (B2) (B1) (A1) (A1) (A1) (B2) (A1) (B2) (B1)
                 (B2) (A1) (B2) (A1) (B1) (A2) (A1) (B2) (B1) (A2)
                 (A1) (A1) (B1) (A1) (B2) (A1) (B2) (A1) (A1) (B2)
                 (B1) (A1) (B2) (A1) (B1) (A2) (B2) (B1) (A2) (A1)
                 (B2) (A1) (B1) (A1) (B2) (A1) (B2) (A2) (B1)
       Virtual   (A1) (B2) (B1) (A2) (A1) (B2) (A1) (A1) (B2) (B1)
                 (A1) (B1) (B2) (A1) (A2) (B1) (B2) (A1) (B1) (A1)
                 (A2) (B1) (A1) (A1) (B1) (B2) (B2) (A2) (B2) (A1)
                 (A1) (A2) (B2) (A1) (B1) (B1) (B2) (A1) (A2) (B2)
                 (A1) (B2) (A2) (B2) (B1) (A1) (B1) (A1) (A2) (B2)
                 (A1) (B2) (B1) (A1) (A2) (B2) (B1) (A1) (A1) (B2)
                 (B1) (A1) (A2) (B1) (A1) (B2) (A1) (B1) (A1) (A2)
                 (B2) (B2) (A1) (A2) (B1) (B2) (A1) (A1) (B2) (A2)
                 (B1) (A1) (B2) (A2) (B1) (B2) (A1) (B2) (B1) (A1)
                 (A1) (B2) (A1) (B2) (A1) (A1) (A2) (B1) (B1) (B2)
                 (A1) (B2) (B1) (A2) (A1) (B1) (A2) (B2) (A1) (A1)
                 (A2) (A2) (B1) (B2) (A1) (B2) (B1) (A1) (B2) (A1)
                 (B1) (B2) (A1) (B1) (A2) (B2) (B2) (A1) (B1) (A2)
                 (B2) (A1) (A2) (B1) (A1) (B2) (B1) (B2) (A1) (A2)
                 (A1) (B2) (A1) (B1) (B1) (A1) (B2) (A2) (A1) (B2)
                 (A2) (B1) (A1) (B2) (B1) (B1) (A2) (A1) (A2) (B2)
                 (A1) (B2) (A2) (B1) (A1) (B2) (A2) (B1) (A1) (B2)
                 (A2) (A1) (B1) (A2) (A1) (B1) (A1) (B2) (B2) (A1)
                 (B2) (B2) (A1) (B1) (A2) (A1) (A1) (B2) (B1) (A2)
                 (B1) (A1) (B2) (B2) (A1) (A1) (B1) (B1) (B1) (A2)
                 (A1) (B2) (A1) (B2) (A1) (B2) (A2) (B1) (A2) (B2)
                 (A1) (B1) (B1) (A2) (A1) (A1) (B2) (B1) (A1) (B2)
                 (A1) (A2) (B1) (B2) (A2) (B1) (A1) (A2) (A1) (B1)
                 (B2) (A1) (B2) (B1) (A1) (B2) (A1) (B1) (A2) (A1)
                 (B1) (A1) (A2) (B1) (B2) (A1) (A2) (A1) (B2) (B1)
                 (A1) (B2) (A2) (B1) (B2) (A1) (A1) (B2) (A2) (B1)
                 (A1) (A1) (B2) (B2) (A1) (B1) (B2) (A1) (A1) (A1)
                 (B1) (B2) (A1) (B1) (A1) (B2) (A1) (B1) (A1) (A1)
 The electronic state of the initial guess is 1-A1.
 Leave Link  401 at Mon Jan 23 19:06:45 2023, MaxMem=  1048576000 cpu:               1.2 elap:               0.3
 (Enter /home/pcmt/gaussian/g16.C.01/g16/l502.exe)
 Integral symmetry usage will be decided dynamically.
 Closed shell SCF:
 Using DIIS extrapolation, IDIIS=  1040.
 NGot=  1048576000 LenX=  1048254116 LenY=  1048096859
 Requested convergence on RMS density matrix=1.00D-08 within 100 cycles.
 Requested convergence on MAX density matrix=1.00D-06.
 Requested convergence on             energy=1.00D-06.
 No special actions if energy rises.
 Fock matrices will be formed incrementally for  20 cycles.

 Cycle   1  Pass 1  IDiag  1:
 FoFJK:  IHMeth= 1 ICntrl=       0 DoSepK=F KAlg= 0 I1Cent=           0 FoldK=F
 IRaf= 920000000 NMat=       1 IRICut=       1 DoRegI=T DoRafI=F ISym2E= 1 IDoP0=0 IntGTp=1.
 FoFCou: FMM=F IPFlag=           0 FMFlag=      100000 FMFlg1=           0
         NFxFlg=           0 DoJE=F BraDBF=F KetDBF=F FulRan=T
         wScrn=  0.000000 ICntrl=         0 IOpCl=  0 I1Cent=           0 NGrid=           0
         NMat0=    1 NMatS0=      1 NMatT0=    0 NMatD0=    1 NMtDS0=    0 NMtDT0=    0
 Petite list used in FoFCou.
 Defaulting to unpruned grid for atomic number  92.
 Defaulting to unpruned grid for atomic number  92.
 Defaulting to unpruned grid for atomic number  92.
 Defaulting to unpruned grid for atomic number  92.
 E= -1589.91694941138    
 DIIS: error= 1.90D-08 at cycle   1 NSaved=   1.
 NSaved= 1 IEnMin= 1 EnMin= -1589.91694941138     IErMin= 1 ErrMin= 1.90D-08
 ErrMax= 1.90D-08  0.00D+00 EMaxC= 1.00D-01 BMatC= 2.06D-13 BMatP= 2.06D-13
 IDIUse=1 WtCom= 1.00D+00 WtEn= 0.00D+00
 Coeff-Com:  0.100D+01
 Coeff:      0.100D+01
 Gap=     0.166 Goal=   None    Shift=    0.000
 RMSDP=2.51D-09 MaxDP=1.51D-07              OVMax= 3.44D-07

 SCF Done:  E(RPBE1PBE) =  -1589.91694941     A.U. after    1 cycles
            NFock=  1  Conv=0.25D-08     -V/T= 2.2883
 KE= 1.234166036639D+03 PE=-5.020586230463D+03 EE= 1.486635369913D+03
 Leave Link  502 at Mon Jan 23 19:06:52 2023, MaxMem=  1048576000 cpu:              27.7 elap:               7.2
 (Enter /home/pcmt/gaussian/g16.C.01/g16/l801.exe)
 DoSCS=F DFT=T ScalE2(SS,OS)=  1.000000  1.000000
 Range of M.O.s used for correlation:    32   329
 NBasis=   329 NAE=    49 NBE=    49 NFC=    31 NFV=     0
 NROrb=    298 NOA=    18 NOB=    18 NVA=   280 NVB=   280

 **** Warning!!: The largest alpha MO coefficient is  0.10741116D+02

 Leave Link  801 at Mon Jan 23 19:06:52 2023, MaxMem=  1048576000 cpu:               0.1 elap:               0.1
 (Enter /home/pcmt/gaussian/g16.C.01/g16/l914.exe)
 RHF ground state
 Two-electron integrals replicated using symmetry.
 MDV=  1048576000 DFT=T DoStab=F Mixed=T DoRPA=T DoScal=F NonHer=T
 Making orbital integer symmetry assigments:
 Orbital symmetries:
       Occupied  (A1) (B2) (B1) (A1) (A1) (A1) (B2) (A1) (B2) (B1)
                 (B2) (A1) (B2) (A1) (B1) (A2) (A1) (B2) (B1) (A2)
                 (A1) (A1) (B1) (A1) (B2) (A1) (B2) (A1) (A1) (B2)
                 (B1) (A1) (B2) (A1) (B1) (A2) (B2) (B1) (A2) (A1)
                 (B2) (A1) (B1) (A1) (B2) (A1) (B2) (A2) (B1)
       Virtual   (A1) (B2) (B1) (A2) (A1) (B2) (A1) (A1) (B2) (B1)
                 (A1) (B1) (B2) (A1) (A2) (B1) (B2) (A1) (B1) (A1)
                 (A2) (B1) (A1) (A1) (B1) (B2) (B2) (A2) (B2) (A1)
                 (A1) (A2) (B2) (A1) (B1) (B1) (B2) (A1) (A2) (B2)
                 (A1) (B2) (A2) (B2) (B1) (A1) (B1) (A1) (A2) (B2)
                 (A1) (B2) (B1) (A1) (A2) (B2) (B1) (A1) (A1) (B2)
                 (B1) (A1) (A2) (B1) (A1) (B2) (A1) (B1) (A1) (A2)
                 (B2) (B2) (A1) (A2) (B1) (B2) (A1) (A1) (B2) (A2)
                 (B1) (A1) (B2) (A2) (B1) (B2) (A1) (B2) (B1) (A1)
                 (A1) (B2) (A1) (B2) (A1) (A1) (A2) (B1) (B1) (B2)
                 (A1) (B2) (B1) (A2) (A1) (B1) (A2) (B2) (A1) (A1)
                 (A2) (A2) (B1) (B2) (A1) (B2) (B1) (A1) (B2) (A1)
                 (B1) (B2) (A1) (B1) (A2) (B2) (B2) (A1) (B1) (A2)
                 (B2) (A1) (A2) (B1) (A1) (B2) (B1) (B2) (A1) (A2)
                 (A1) (B2) (A1) (B1) (B1) (A1) (B2) (A2) (A1) (B2)
                 (A2) (B1) (A1) (B2) (B1) (B1) (A2) (A1) (A2) (B2)
                 (A1) (B2) (A2) (B1) (A1) (B2) (A2) (B1) (A1) (B2)
                 (A2) (A1) (B1) (A2) (A1) (B1) (A1) (B2) (B2) (A1)
                 (B2) (B2) (A1) (B1) (A2) (A1) (A1) (B2) (B1) (A2)
                 (B1) (A1) (B2) (B2) (A1) (A1) (B1) (B1) (B1) (A2)
                 (A1) (B2) (A1) (B2) (A1) (B2) (A2) (B1) (A2) (B2)
                 (A1) (B1) (B1) (A2) (A1) (A1) (B2) (B1) (A1) (B2)
                 (A1) (A2) (B1) (B2) (A2) (B1) (A1) (A2) (A1) (B1)
                 (B2) (A1) (B2) (B1) (A1) (B2) (A1) (B1) (A2) (A1)
                 (B1) (A1) (A2) (B1) (B2) (A1) (A2) (A1) (B2) (B1)
                 (A1) (B2) (A2) (B1) (B2) (A1) (A1) (B2) (A2) (B1)
                 (A1) (A1) (B2) (B2) (A1) (B1) (B2) (A1) (A1) (A1)
                 (B1) (B2) (A1) (B1) (A1) (B2) (A1) (B1) (A1) (A1)
    16 initial guesses have been made.
 Convergence on wavefunction:    0.000001000000000
 Davidson Disk Diagonalization:  ConvIn= 1.00D-06 SkipCon=T Conv= 1.00D-06.
 Max sub-space:  2000 roots to seek:    16 dimension of matrix:        10080
 Iteration     1 Dimension    16 NMult     0 NNew     16
 CISAX will form    16 AO SS matrices at one time.
 NMat=    16 NSing=     0 JSym2X=-1.
 FoFJK:  IHMeth= 1 ICntrl=       0 DoSepK=F KAlg= 0 I1Cent=           0 FoldK=F
 IRaf= 920000000 NMat=      32 IRICut=      40 DoRegI=T DoRafI=T ISym2E=-1 IDoP0=3 IntGTp=3.
 FoFCou: FMM=F IPFlag=           0 FMFlag=      100000 FMFlg1=           0
         NFxFlg=           0 DoJE=F BraDBF=F KetDBF=F FulRan=T
         wScrn=  0.000000 ICntrl=         0 IOpCl=  0 I1Cent=           0 NGrid=           0
         NMat0=   32 NMatS0=      0 NMatT0=   16 NMatD0=   32 NMtDS0=    0 NMtDT0=    0
 Petite list used in FoFCou.
 Raff kept on since  91.02% of shell-pairs survive, threshold=   0.20 IRatSp=91.
 Defaulting to unpruned grid for atomic number  92.
 Defaulting to unpruned grid for atomic number  92.
 Defaulting to unpruned grid for atomic number  92.
 Defaulting to unpruned grid for atomic number  92.
 New state      3 was old state      4
 New state      4 was old state      3
 Excitation Energies [eV] at current iteration:
 Root      1 :     2.815227565962777
 Root      2 :     2.824026191912603
 Root      3 :     2.898107265992449
 Root      4 :     2.899443233859103
 Root      5 :     3.362443013904004
 Root      6 :     3.362557827097274
 Root      7 :     3.363936683796191
 Root      8 :     3.411595702095250
 Root      9 :     3.450785923480020
 Root     10 :     3.489002386879586
 Root     11 :     3.582587262641198
 Root     12 :     3.591908727815314
 Root     13 :     3.709689374828424
 Root     14 :     3.713386769975276
 Root     15 :     3.864841356335432
 Root     16 :     3.896335358222175
 Iteration     2 Dimension    24 NMult    16 NNew      8
 CISAX will form     8 AO SS matrices at one time.
 NMat=     8 NSing=     0 JSym2X=-1.
 New state      1 was old state      4
 Root      1 not converged, maximum delta is    0.466797596268190
 New state      2 was old state      1
 Root      2 not converged, maximum delta is    0.369843060153449
 Root      3 not converged, maximum delta is    0.412533876329268
 New state      4 was old state      2
 Root      4 not converged, maximum delta is    0.348891579543970
 Excitation Energies [eV] at current iteration:
 Root      1 :     2.295549911027733   Change is   -0.603893322831370
 Root      2 :     2.387781631920165   Change is   -0.427445934042611
 Root      3 :     2.394726614879740   Change is   -0.503380651112709
 Root      4 :     2.418061127390770   Change is   -0.405965064521833
 Iteration     3 Dimension    32 NMult    24 NNew      8
 CISAX will form     8 AO SS matrices at one time.
 NMat=     8 NSing=     0 JSym2X=-1.
 Root      1 not converged, maximum delta is    0.017209752753337
 Root      2 not converged, maximum delta is    0.030428891222736
 Root      3 not converged, maximum delta is    0.029426051606510
 Root      4 not converged, maximum delta is    0.042000134861852
 Excitation Energies [eV] at current iteration:
 Root      1 :     2.279575328557089   Change is   -0.015974582470645
 Root      2 :     2.361629977822245   Change is   -0.026151654097921
 Root      3 :     2.366264769149269   Change is   -0.028461845730472
 Root      4 :     2.385486459198178   Change is   -0.032574668192592
 Iteration     4 Dimension    40 NMult    32 NNew      8
 CISAX will form     8 AO SS matrices at one time.
 NMat=     8 NSing=     0 JSym2X=-1.
 Root      1 not converged, maximum delta is    0.004660013526117
 Root      2 not converged, maximum delta is    0.001975705130274
 Root      3 not converged, maximum delta is    0.005193682531398
 Root      4 not converged, maximum delta is    0.003016148099467
 Excitation Energies [eV] at current iteration:
 Root      1 :     2.279112188340554   Change is   -0.000463140216534
 Root      2 :     2.361052632531079   Change is   -0.000577345291166
 Root      3 :     2.365510520190027   Change is   -0.000754248959241
 Root      4 :     2.384649676323334   Change is   -0.000836782874844
 Iteration     5 Dimension    48 NMult    40 NNew      8
 CISAX will form     8 AO SS matrices at one time.
 NMat=     8 NSing=     0 JSym2X=-1.
 Root      1 not converged, maximum delta is    0.000372357133381
 Root      2 not converged, maximum delta is    0.001188441338893
 Root      3 not converged, maximum delta is    0.000552957926085
 Root      4 not converged, maximum delta is    0.000993417983770
 Excitation Energies [eV] at current iteration:
 Root      1 :     2.279098914805543   Change is   -0.000013273535012
 Root      2 :     2.361030407034124   Change is   -0.000022225496954
 Root      3 :     2.365483442475704   Change is   -0.000027077714324
 Root      4 :     2.384629500725643   Change is   -0.000020175597690
 Iteration     6 Dimension    56 NMult    48 NNew      8
 CISAX will form     8 AO SS matrices at one time.
 NMat=     8 NSing=     0 JSym2X=-1.
 Root      1 not converged, maximum delta is    0.000286226814778
 Root      2 not converged, maximum delta is    0.000614902795912
 Root      3 not converged, maximum delta is    0.000454012649446
 Root      4 not converged, maximum delta is    0.000211172443838
 Excitation Energies [eV] at current iteration:
 Root      1 :     2.279097974493433   Change is   -0.000000940312109
 Root      2 :     2.361026938642545   Change is   -0.000003468391579
 Root      3 :     2.365481736399571   Change is   -0.000001706076133
 Root      4 :     2.384628076962851   Change is   -0.000001423762792
 Iteration     7 Dimension    64 NMult    56 NNew      8
 CISAX will form     8 AO SS matrices at one time.
 NMat=     8 NSing=     0 JSym2X=-1.
 Root      1 not converged, maximum delta is    0.000037523055980
 Root      2 not converged, maximum delta is    0.000073146242257
 Root      3 not converged, maximum delta is    0.000049764309931
 Root      4 not converged, maximum delta is    0.000126512347111
 Excitation Energies [eV] at current iteration:
 Root      1 :     2.279097917454257   Change is   -0.000000057039176
 Root      2 :     2.361026687404258   Change is   -0.000000251238287
 Root      3 :     2.365481659692085   Change is   -0.000000076707486
 Root      4 :     2.384627919857674   Change is   -0.000000157105178
 Iteration     8 Dimension    72 NMult    64 NNew      8
 CISAX will form     8 AO SS matrices at one time.
 NMat=     8 NSing=     0 JSym2X=-1.
 Root      1 not converged, maximum delta is    0.000007368657276
 Root      2 not converged, maximum delta is    0.000010180052114
 Root      3 not converged, maximum delta is    0.000005822529814
 Root      4 not converged, maximum delta is    0.000021031494326
 Excitation Energies [eV] at current iteration:
 Root      1 :     2.279097914959102   Change is   -0.000000002495156
 Root      2 :     2.361026677635776   Change is   -0.000000009768482
 Root      3 :     2.365481656642650   Change is   -0.000000003049434
 Root      4 :     2.384627908260055   Change is   -0.000000011597619
 Iteration     9 Dimension    80 NMult    72 NNew      8
 CISAX will form     8 AO SS matrices at one time.
 NMat=     8 NSing=     0 JSym2X=-1.
 Root      1 not converged, maximum delta is    0.000001673238150
 Root      2 not converged, maximum delta is    0.000001736450849
 Root      3 not converged, maximum delta is    0.000001943982965
 Root      4 not converged, maximum delta is    0.000004907333529
 Excitation Energies [eV] at current iteration:
 Root      1 :     2.279097914868421   Change is   -0.000000000090680
 Root      2 :     2.361026677348975   Change is   -0.000000000286800
 Root      3 :     2.365481656545620   Change is   -0.000000000097030
 Root      4 :     2.384627907790071   Change is   -0.000000000469983
 Iteration    10 Dimension    88 NMult    80 NNew      8
 CISAX will form     8 AO SS matrices at one time.
 NMat=     8 NSing=     0 JSym2X=-1.
 Root      1 has converged.
 Root      2 has converged.
 Root      3 has converged.
 Root      4 has converged.
 Excitation Energies [eV] at current iteration:
 Root      1 :     2.279097914864634   Change is   -0.000000000003787
 Root      2 :     2.361026677340131   Change is   -0.000000000008844
 Root      3 :     2.365481656542562   Change is   -0.000000000003058
 Root      4 :     2.384627907771076   Change is   -0.000000000018995
 Convergence achieved on expansion vectors.
 ***********************************************************************
 Excited states from <AA,BB:AA,BB> singles matrix:
 ***********************************************************************
 
 1PDM for each excited state written to RWF  633
 Ground to excited state transition densities written to RWF  633
 Ground to excited state transition electric dipole moments (Au):
       state          X           Y           Z        Dip. S.      Osc.
         1         0.0000     -0.0000     -0.0000      0.0000      0.0000
         2         0.0000     -0.0000     -0.0000      0.0000      0.0000
         3        -0.0000      0.0000      0.0000      0.0000      0.0000
         4         0.0000     -0.0000     -0.0000      0.0000      0.0000
 Ground to excited state transition velocity dipole moments (Au):
       state          X           Y           Z        Dip. S.      Osc.
         1         0.0000     -0.0000     -0.0000      0.0000      0.0000
         2        -0.0000      0.0000     -0.0000      0.0000      0.0000
         3        -0.0000     -0.0000      0.0000      0.0000      0.0000
         4         0.0000     -0.0000      0.0000      0.0000      0.0000
 Ground to excited state transition magnetic dipole moments (Au):
       state          X           Y           Z
         1        -0.0000     -0.0000      0.0000
         2        -0.0000     -0.0000     -0.0000
         3         0.0000      0.0000      0.0000
         4         0.0000      0.0000      0.0000
 Ground to excited state transition velocity quadrupole moments (Au):
       state          XX          YY          ZZ          XY          XZ          YZ
         1        -0.0000     -0.0000     -0.0000     -0.0000      0.0000     -0.0000
         2         0.0000     -0.0000      0.0000     -0.0000     -0.0000      0.0000
         3         0.0000      0.0000      0.0000     -0.0000     -0.0000      0.0000
         4        -0.0000      0.0000     -0.0000      0.0000      0.0000     -0.0000
 <0|del|b> * <b|rxdel|0> + <0|del|b> * <b|delr+rdel|0>
 Rotatory Strengths (R) in cgs (10**-40 erg-esu-cm/Gauss)
       state          XX          YY          ZZ    R(velocity)    E-M Angle
         1         0.0000     -0.0000      0.0000      0.0000       90.00
         2         0.0000     -0.0000     -0.0000     -0.0000       90.00
         3         0.0000      0.0000     -0.0000      0.0000       90.00
         4         0.0000     -0.0000     -0.0000     -0.0000       90.00
 1/2[<0|r|b>*<b|rxdel|0> + (<0|rxdel|b>*<b|r|0>)*]
 Rotatory Strengths (R) in cgs (10**-40 erg-esu-cm/Gauss)
       state          XX          YY          ZZ     R(length)
         1         0.0000     -0.0000      0.0000     -0.0000
         2         0.0000     -0.0000     -0.0000      0.0000
         3         0.0000     -0.0000     -0.0000     -0.0000
         4        -0.0000      0.0000      0.0000      0.0000
  1/2[<0|del|b>*<b|r|0> + (<0|r|b>*<b|del|0>)*] (Au)
       state          X           Y           Z        Dip. S.   Osc.(frdel)
         1         0.0000      0.0000      0.0000     -0.0000     -0.0000
         2        -0.0000     -0.0000      0.0000      0.0000      0.0000
         3         0.0000     -0.0000      0.0000     -0.0000     -0.0000
         4         0.0000      0.0000     -0.0000     -0.0000     -0.0000

 Excitation energies and oscillator strengths:
 
 Excited State   1:      Triplet-A1     2.2791 eV  544.01 nm  f=0.0000  <S**2>=2.000
      43 -> 52         0.42031
      49 -> 52         0.57093
 This state for optimization and/or second-order correction.
 Total Energy, E(TD-HF/TD-DFT) =  -1589.83319410    
 Copying the excited state density for this state as the 1-particle RhoCI density.
 
 Excited State   2:      Triplet-B1     2.3610 eV  525.13 nm  f=0.0000  <S**2>=2.000
      43 -> 50         0.36801
      49 -> 50         0.60186
 
 Excited State   3:      Triplet-B2     2.3655 eV  524.14 nm  f=0.0000  <S**2>=2.000
      43 -> 53         0.39003
      49 -> 53         0.59115
 
 Excited State   4:      Triplet-A2     2.3846 eV  519.93 nm  f=0.0000  <S**2>=2.000
      43 -> 51         0.36012
      49 -> 51         0.60690
 SavETr:  write IOETrn=   770 NScale= 10 NData=  16 NLR=1 NState=    4 LETran=      82.
 The selected state is a triplet.
 CISGrd: IGrad=3 NXY=2 DFT=T
 CISAX will form     1 AO SS matrices at one time.
 NMat=     1 NSing=     0 JSym2X=-1.
 Leave Link  914 at Mon Jan 23 19:31:34 2023, MaxMem=  1048576000 cpu:            5860.9 elap:            1481.3
 (Enter /home/pcmt/gaussian/g16.C.01/g16/l1002.exe)
 Minotr:  Closed shell wavefunction.
          Computing CIS/TDA/TD derivatives.
          Using Z-Vector for PSCF gradient.
          Skipping F1 and S1 gradient terms here.
          IDoAtm=1111111
          Frozen-core window.
          Direct CPHF calculation.
          Differentiating once with respect to electric field.
                with respect to dipole field.
          Differentiating once with respect to nuclear coordinates.
          Requested convergence is 1.0D-10 RMS, and 1.0D-09 maximum.
          NewPWx=F KeepS1=T KeepF1=T KeepIn=T MapXYZ=F SortEE=F KeepMc=T.
[...]
    D9       -1.64753   0.00000   0.00000  -0.00000  -0.00000  -1.64753
   D10        1.64753  -0.00000   0.00000   0.00000   0.00000   1.64753
   D11        1.49406   0.00000   0.00000  -0.00000  -0.00000   1.49406
   D12        1.49406   0.00000   0.00000  -0.00000  -0.00000   1.49406
         Item               Value     Threshold  Converged?
 Maximum Force            0.000000     0.000450     YES
 RMS     Force            0.000000     0.000300     YES
 Maximum Displacement     0.000005     0.001800     YES
 RMS     Displacement     0.000001     0.001200     YES
 Predicted change in Energy=-1.141129D-13
 Optimization completed.
    -- Stationary point found.
                           ----------------------------
                           !   Optimized Parameters   !
                           ! (Angstroms and Degrees)  !
 --------------------------                            --------------------------
 ! Name  Definition              Value          Derivative Info.                !
 --------------------------------------------------------------------------------
 ! R1    R(1,2)                  1.7594         -DE/DX =    0.0                 !
 ! R2    R(1,3)                  1.7594         -DE/DX =    0.0                 !
 ! R3    R(1,4)                  2.5227         -DE/DX =    0.0                 !
 ! R4    R(1,5)                  2.5227         -DE/DX =    0.0                 !
 ! R5    R(1,6)                  3.2694         -DE/DX =    0.0                 !
 ! R6    R(1,7)                  3.2694         -DE/DX =    0.0                 !
 ! R7    R(4,7)                  4.0982         -DE/DX =    0.0                 !
 ! R8    R(5,6)                  4.0982         -DE/DX =    0.0                 !
 ! A1    A(2,1,4)               94.2854         -DE/DX =    0.0                 !
 ! A2    A(2,1,5)               94.2854         -DE/DX =    0.0                 !
 ! A3    A(2,1,6)               84.3228         -DE/DX =    0.0                 !
 ! A4    A(2,1,7)               84.3228         -DE/DX =    0.0                 !
 ! A5    A(3,1,4)               94.2854         -DE/DX =    0.0                 !
 ! A6    A(3,1,5)               94.2854         -DE/DX =    0.0                 !
 ! A7    A(3,1,6)               84.3228         -DE/DX =    0.0                 !
 ! A8    A(3,1,7)               84.3228         -DE/DX =    0.0                 !
 ! A9    A(4,1,5)              106.5189         -DE/DX =    0.0                 !
 ! A10   A(6,1,7)               75.2721         -DE/DX =    0.0                 !
 ! A11   L(2,1,3,4,-1)         188.5709         -DE/DX =    0.0                 !
 ! A12   L(4,1,6,3,-1)         178.6082         -DE/DX =    0.0                 !
 ! A13   L(5,1,7,3,-1)         178.6082         -DE/DX =    0.0                 !
 ! A14   L(2,1,3,4,-2)         191.5226         -DE/DX =    0.0                 !
 ! A15   L(4,1,6,3,-2)         195.6211         -DE/DX =    0.0                 !
 ! A16   L(5,1,7,3,-2)         164.3789         -DE/DX =    0.0                 !
 ! D1    D(2,1,5,4)            -95.7613         -DE/DX =    0.0                 !
 ! D2    D(2,1,6,4)             85.6036         -DE/DX =    0.0                 !
 ! D3    D(2,1,7,4)             94.3964         -DE/DX =    0.0                 !
 ! D4    D(2,1,6,5)            -94.3964         -DE/DX =    0.0                 !
 ! D5    D(2,1,7,5)            -85.6036         -DE/DX =    0.0                 !
 ! D6    D(2,1,7,6)            -85.6036         -DE/DX =    0.0                 !
 ! D7    D(3,1,5,4)             95.7613         -DE/DX =    0.0                 !
 ! D8    D(3,1,6,4)            -85.6036         -DE/DX =    0.0                 !
 ! D9    D(3,1,7,4)            -94.3964         -DE/DX =    0.0                 !
 ! D10   D(3,1,6,5)             94.3964         -DE/DX =    0.0                 !
 ! D11   D(3,1,7,5)             85.6036         -DE/DX =    0.0                 !
 ! D12   D(3,1,7,6)             85.6036         -DE/DX =    0.0                 !
 --------------------------------------------------------------------------------
 GradGradGradGradGradGradGradGradGradGradGradGradGradGradGradGradGradGrad

 Leave Link  103 at Mon Jan 23 20:46:14 2023, MaxMem=  1048576000 cpu:               0.1 elap:               0.1
 (Enter /home/pcmt/gaussian/g16.C.01/g16/l9999.exe)
 -------------------------------------------------------------------
 Center     Atomic                Nonadiabatic Coup. (Bohr^-1)
 Number     Number              X              Y              Z
 -------------------------------------------------------------------
      1       92          -0.000000000    0.107578508   -0.000000000
      2        8          -0.037320328   -0.123420456    0.000000000
      3        8           0.037320328   -0.123420456    0.000000000
      4       17           0.000000000    0.068935081    0.038147713
      5       17           0.000000000    0.068935081   -0.038147713
      6       18           0.000000000    0.000696121   -0.001692006
      7       18           0.000000000    0.000696121    0.001692006
 -------------------------------------------------------------------
 Cartesian Nonad. Coup.:  Max     0.123420456 RMS     0.052210767
 Electronic transition elements 
                 1             2             3             4 
      1  -0.158983D+04 -0.158983D+04 -0.158983D+04 -0.158983D+04
      2   0.000000D+00  0.000000D+00  0.000000D+00  0.000000D+00
      3   0.000000D+00  0.000000D+00  0.000000D+00  0.000000D+00
      4   0.000000D+00  0.000000D+00  0.000000D+00  0.000000D+00
      5   0.000000D+00  0.000000D+00  0.000000D+00  0.000000D+00
      6   0.000000D+00  0.000000D+00  0.000000D+00  0.000000D+00
      7   0.000000D+00  0.000000D+00  0.000000D+00  0.000000D+00
      8   0.000000D+00  0.000000D+00  0.000000D+00  0.000000D+00
      9   0.000000D+00  0.000000D+00  0.000000D+00  0.000000D+00
     10   0.000000D+00  0.000000D+00  0.000000D+00  0.000000D+00
     11   0.000000D+00  0.000000D+00  0.000000D+00  0.000000D+00
     12   0.000000D+00  0.000000D+00  0.000000D+00  0.000000D+00
     13   0.000000D+00  0.000000D+00  0.000000D+00  0.000000D+00
     14   0.000000D+00  0.000000D+00  0.000000D+00  0.000000D+00
     15   0.000000D+00  0.000000D+00  0.000000D+00  0.000000D+00
     16   0.000000D+00  0.000000D+00  0.000000D+00  0.000000D+00
 Electronic Transition Derivatives 
                 1             2             3             4             5 
      1   0.000000D+00  0.000000D+00  0.000000D+00  0.000000D+00  0.000000D+00
      2   0.000000D+00  0.000000D+00  0.000000D+00  0.000000D+00  0.000000D+00
      3   0.000000D+00  0.000000D+00  0.000000D+00  0.000000D+00  0.000000D+00
      4   0.000000D+00  0.000000D+00  0.000000D+00  0.000000D+00  0.000000D+00
      5   0.000000D+00  0.000000D+00  0.000000D+00  0.000000D+00  0.000000D+00
      6   0.000000D+00  0.000000D+00  0.000000D+00  0.000000D+00  0.000000D+00
      7   0.000000D+00  0.000000D+00  0.000000D+00  0.000000D+00  0.000000D+00
      8   0.000000D+00  0.000000D+00  0.000000D+00  0.000000D+00  0.000000D+00
      9   0.000000D+00  0.000000D+00  0.000000D+00  0.000000D+00  0.000000D+00
     10   0.000000D+00  0.000000D+00  0.000000D+00  0.000000D+00  0.000000D+00
     11   0.000000D+00  0.000000D+00  0.000000D+00  0.000000D+00  0.000000D+00
     12   0.000000D+00  0.000000D+00  0.000000D+00  0.000000D+00  0.000000D+00
     13   0.000000D+00  0.000000D+00  0.000000D+00  0.000000D+00  0.000000D+00
     14   0.000000D+00  0.000000D+00  0.000000D+00  0.000000D+00  0.000000D+00
     15   0.000000D+00  0.000000D+00  0.000000D+00  0.000000D+00  0.000000D+00
     16   0.000000D+00  0.000000D+00  0.000000D+00  0.000000D+00  0.000000D+00
                 6             7             8             9            10 
      1   0.000000D+00  0.000000D+00  0.000000D+00  0.000000D+00  0.000000D+00
      2   0.000000D+00  0.000000D+00  0.000000D+00  0.000000D+00  0.000000D+00
      3   0.000000D+00  0.000000D+00  0.000000D+00  0.000000D+00  0.000000D+00
      4   0.000000D+00  0.000000D+00  0.000000D+00  0.000000D+00  0.000000D+00
      5   0.000000D+00  0.000000D+00  0.000000D+00  0.000000D+00  0.000000D+00
      6   0.000000D+00  0.000000D+00  0.000000D+00  0.000000D+00  0.000000D+00
      7   0.000000D+00  0.000000D+00  0.000000D+00  0.000000D+00  0.000000D+00
      8   0.000000D+00  0.000000D+00  0.000000D+00  0.000000D+00  0.000000D+00
      9   0.000000D+00  0.000000D+00  0.000000D+00  0.000000D+00  0.000000D+00
     10   0.000000D+00  0.000000D+00  0.000000D+00  0.000000D+00  0.000000D+00
     11   0.000000D+00  0.000000D+00  0.000000D+00  0.000000D+00  0.000000D+00
     12   0.000000D+00  0.000000D+00  0.000000D+00  0.000000D+00  0.000000D+00
     13   0.000000D+00  0.000000D+00  0.000000D+00  0.000000D+00  0.000000D+00
     14   0.000000D+00  0.000000D+00  0.000000D+00  0.000000D+00  0.000000D+00
     15   0.000000D+00  0.000000D+00  0.000000D+00  0.000000D+00  0.000000D+00
     16   0.000000D+00  0.000000D+00  0.000000D+00  0.000000D+00  0.000000D+00
                11            12            13            14            15 
      1   0.000000D+00  0.000000D+00  0.000000D+00  0.000000D+00  0.000000D+00
      2   0.000000D+00  0.000000D+00  0.000000D+00  0.000000D+00  0.000000D+00
      3   0.000000D+00  0.000000D+00  0.000000D+00  0.000000D+00  0.000000D+00
      4   0.000000D+00  0.000000D+00  0.000000D+00  0.000000D+00  0.000000D+00
      5   0.000000D+00  0.000000D+00  0.000000D+00  0.000000D+00  0.000000D+00
      6   0.000000D+00  0.000000D+00  0.000000D+00  0.000000D+00  0.000000D+00
      7   0.000000D+00  0.000000D+00  0.000000D+00  0.000000D+00  0.000000D+00
      8   0.000000D+00  0.000000D+00  0.000000D+00  0.000000D+00  0.000000D+00
      9   0.000000D+00  0.000000D+00  0.000000D+00  0.000000D+00  0.000000D+00
     10   0.000000D+00  0.000000D+00  0.000000D+00  0.000000D+00  0.000000D+00
     11   0.000000D+00  0.000000D+00  0.000000D+00  0.000000D+00  0.000000D+00
     12   0.000000D+00  0.000000D+00  0.000000D+00  0.000000D+00  0.000000D+00
     13   0.000000D+00  0.000000D+00  0.000000D+00  0.000000D+00  0.000000D+00
     14   0.000000D+00  0.000000D+00  0.000000D+00  0.000000D+00  0.000000D+00
     15   0.000000D+00  0.000000D+00  0.000000D+00  0.000000D+00  0.000000D+00
     16   0.000000D+00  0.000000D+00  0.000000D+00  0.000000D+00  0.000000D+00
                16            17            18            19            20 
      1   0.000000D+00  0.000000D+00  0.000000D+00  0.000000D+00  0.000000D+00
      2   0.000000D+00  0.000000D+00  0.000000D+00  0.000000D+00  0.000000D+00
      3   0.000000D+00  0.000000D+00  0.000000D+00  0.000000D+00  0.000000D+00
      4   0.000000D+00  0.000000D+00  0.000000D+00  0.000000D+00  0.000000D+00
      5   0.000000D+00  0.000000D+00  0.000000D+00  0.000000D+00  0.000000D+00
      6   0.000000D+00  0.000000D+00  0.000000D+00  0.000000D+00  0.000000D+00
      7   0.000000D+00  0.000000D+00  0.000000D+00  0.000000D+00  0.000000D+00
      8   0.000000D+00  0.000000D+00  0.000000D+00  0.000000D+00  0.000000D+00
      9   0.000000D+00  0.000000D+00  0.000000D+00  0.000000D+00  0.000000D+00
     10   0.000000D+00  0.000000D+00  0.000000D+00  0.000000D+00  0.000000D+00
     11   0.000000D+00  0.000000D+00  0.000000D+00  0.000000D+00  0.000000D+00
     12   0.000000D+00  0.000000D+00  0.000000D+00  0.000000D+00  0.000000D+00
     13   0.000000D+00  0.000000D+00  0.000000D+00  0.000000D+00  0.000000D+00
     14   0.000000D+00  0.000000D+00  0.000000D+00  0.000000D+00  0.000000D+00
     15   0.000000D+00  0.000000D+00  0.000000D+00  0.000000D+00  0.000000D+00
     16   0.000000D+00  0.000000D+00  0.000000D+00  0.000000D+00  0.000000D+00
                21            22            23            24 
      1   0.000000D+00  0.000000D+00  0.000000D+00  0.000000D+00
      2   0.000000D+00  0.000000D+00  0.000000D+00  0.000000D+00
      3   0.000000D+00  0.000000D+00  0.000000D+00  0.000000D+00
      4   0.000000D+00  0.000000D+00  0.000000D+00  0.000000D+00
      5   0.000000D+00  0.000000D+00  0.000000D+00  0.000000D+00
      6   0.000000D+00  0.000000D+00  0.000000D+00  0.000000D+00
      7   0.000000D+00  0.000000D+00  0.000000D+00  0.000000D+00
      8   0.000000D+00  0.000000D+00  0.000000D+00  0.000000D+00
      9   0.000000D+00  0.000000D+00  0.000000D+00  0.000000D+00
     10   0.000000D+00  0.000000D+00  0.000000D+00  0.000000D+00
     11   0.000000D+00  0.000000D+00  0.000000D+00  0.000000D+00
     12   0.000000D+00  0.000000D+00  0.000000D+00  0.000000D+00
     13   0.000000D+00  0.000000D+00  0.000000D+00  0.000000D+00
     14   0.000000D+00  0.000000D+00  0.000000D+00  0.000000D+00
     15   0.000000D+00  0.000000D+00  0.000000D+00  0.000000D+00
     16   0.000000D+00  0.000000D+00  0.000000D+00  0.000000D+00

 ----------------------------------------------------------------------

 Electric dipole moment (input orientation):
 (Debye = 10**-18 statcoulomb cm , SI units = C m)
                  (au)            (Debye)         (10**-30 SI)
   Tot        0.225510D+01      0.573189D+01      0.191195D+02
   x          0.000000D+00      0.000000D+00      0.000000D+00
   y          0.225510D+01      0.573189D+01      0.191195D+02
   z          0.000000D+00      0.000000D+00      0.000000D+00

 Dipole polarizability, Alpha (input orientation).
 (esu units = cm**3 , SI units = C**2 m**2 J**-1)
 Alpha(0;0):
               (au)            (10**-24 esu)      (10**-40 SI)
   iso        0.110144D+03      0.163217D+02      0.181603D+02
   aniso      0.524947D+02      0.777891D+01      0.865521D+01
   xx         0.868441D+02      0.128690D+02      0.143187D+02
   yx         0.000000D+00      0.000000D+00      0.000000D+00
   yy         0.991798D+02      0.146969D+02      0.163525D+02
   zx         0.000000D+00      0.000000D+00      0.000000D+00
   zy         0.000000D+00      0.000000D+00      0.000000D+00
   zz         0.144408D+03      0.213991D+02      0.238097D+02

 ----------------------------------------------------------------------

 Dipole orientation:
    92          0.00000000         -0.00000000         -0.75781488
     8         -3.29876649          0.00000000         -0.34248414
     8          3.29876649         -0.00000000         -0.34248414
    17          0.00000000         -3.82015823         -3.60947895
    17          0.00000000          3.82015823         -3.60947895
    18         -0.00000000          3.77272564          4.13479705
    18         -0.00000000         -3.77272564          4.13479705

 Electric dipole moment (dipole orientation):
 (Debye = 10**-18 statcoulomb cm , SI units = C m)
                  (au)            (Debye)         (10**-30 SI)
   Tot        0.225510D+01      0.573189D+01      0.191195D+02
   x          0.000000D+00      0.000000D+00      0.000000D+00
   y          0.000000D+00      0.000000D+00      0.000000D+00
   z          0.225510D+01      0.573189D+01      0.191195D+02

 Dipole polarizability, Alpha (dipole orientation).
 (esu units = cm**3 , SI units = C**2 m**2 J**-1)
 Alpha(0;0):
               (au)            (10**-24 esu)      (10**-40 SI)
   iso        0.110144D+03      0.163217D+02      0.181603D+02
   aniso      0.524947D+02      0.777891D+01      0.865521D+01
   xx         0.868441D+02      0.128690D+02      0.143187D+02
   yx         0.000000D+00      0.000000D+00      0.000000D+00
   yy         0.144408D+03      0.213991D+02      0.238097D+02
   zx         0.000000D+00      0.000000D+00      0.000000D+00
   zy         0.000000D+00      0.000000D+00      0.000000D+00
   zz         0.991798D+02      0.146969D+02      0.163525D+02

 ----------------------------------------------------------------------

 Test job not archived.
 1\1\GINC-U-5-3\Freq\RPBE1PBE TD-FC\Gen\Ar2Cl2O2U1\VALLET\23-Jan-2023\0
 \\#p PBE1PBE/GEN GFInput GFPrint 5D 7F Pseudo=Read IOP(2/9=2, 4/69=2, 
 6/7=3, 8/10=91, 8/37=32, 8/38=0) EmpiricalDispersion=GD3BJ Symm=(Loose
 ) Int=(UltraFine) Guess=(Read) Geom=CheckPoint Scf=(NoVarAcc,MaxCycle=
 100,conver=8) td=(triplets,nstates=4,root=1) Freq\\[UO2Cl2Ar2]2- - PBE
 0+D3BJ - GS\\0,1\U,0.,-0.4010183661,0.\O,-1.7456320493,-0.181234803,0.
 \O,1.7456320493,-0.181234803,0.\Cl,0.,-1.9100540027,2.0215406782\Cl,0.
 ,-1.9100540027,-2.0215406782\Ar,0.,2.1880403695,-1.9964404341\Ar,0.,2.
 1880403695,1.9964404341\\Version=ES64L-G16RevC.01\State=1-A1\HF=-1589.
 9169494\RMSD=2.508e-09\RMSF=4.695e-08\ZeroPoint=0.0079505\Thermal=0.01
 99366\ETot=-1589.8132575\HTot=-1589.8123133\GTot=-1589.8708221\Dipole=
 0.,2.2550985,0.\DipoleDeriv=2.1523701,0.,0.,0.,1.9885156,0.0000029,0.,
 0.,2.4357252,-0.9542283,0.1381144,-0.0000002,0.1680875,-0.3909633,-0.0
 000015,0.,0.,-0.3756415,-0.9542283,-0.1381144,0.0000002,-0.1680875,-0.
 3909633,-0.0000015,0.,0.,-0.3756412,-0.2022448,0.,0.,0.,-0.5192402,0.3
 296994,0.,0.2788632,-0.808968,-0.2022448,0.,0.,0.,-0.5192402,-0.329699
 8,0.,-0.2788632,-0.8089676,0.080288,0.,0.,0.,-0.0840543,0.1060496,0.,0
 .1216264,-0.0332534,0.080288,0.,0.,0.,-0.0840543,-0.1060492,0.,-0.1216
 264,-0.0332535\Polar=86.8441044,0.,99.1797908,0.,0.0000009,144.4081187
 \PG=C02V [C2(U1),SGV(Ar2Cl2),SGV'(O2)]\NImag=0\\0.90955911,0.,0.164349
 35,0.,0.00000026,0.21435139,-0.43925407,0.02853645,-0.00000002,0.44390
 381,0.04356851,-0.03282554,-0.00000013,-0.04551534,0.02378150,0.,-0.00
 000013,-0.03500359,0.00000001,0.00000007,0.02164778,-0.43925407,-0.028
 53645,0.00000002,-0.01189752,-0.00224952,0.,0.44390381,-0.04356851,-0.
 03282554,-0.00000013,0.00224952,0.01146076,0.00000007,0.04551534,0.023
 78149,0.,-0.00000013,-0.03500357,0.,0.00000007,0.01262513,-0.00000001,
 0.00000007,0.02164775,-0.01475853,0.,0.,0.00368077,0.00267096,-0.00348
 944,0.00368077,-0.00267096,0.00348944,0.00675237,0.,-0.04647005,0.0488
 6755,0.00859329,-0.00103930,0.00141754,-0.00859329,-0.00103930,0.00141
 755,0.,0.04447377,0.,0.04893697,-0.07080877,-0.01241910,0.00247770,0.0
 0059914,0.01241910,0.00247770,0.00059915,0.,-0.05364137,0.07195409,-0.
 01475852,0.,0.,0.00368076,0.00267095,0.00348944,0.00368076,-0.00267095
 ,-0.00348944,0.00059259,0.,0.,0.00675237,0.,-0.04647030,-0.04886759,0.
 00859331,-0.00103918,-0.00141752,-0.00859331,-0.00103918,-0.00141753,0
 .,0.00492561,-0.00152556,0.,0.04447381,0.,-0.04893696,-0.07080874,0.01
 241910,-0.00247771,0.00059913,-0.01241910,-0.00247771,0.00059913,0.,0.
 00152557,-0.00186352,0.,0.05364136,0.07195409,-0.00076696,0.,0.,-0.000
 05687,-0.00057278,0.00038364,-0.00005687,0.00057278,-0.00038364,0.0000
 9739,0.,0.,-0.00004535,0.,0.,0.00082806,0.,-0.00287896,0.00151894,-0.0
 0122862,-0.00016911,0.00028848,0.00122862,-0.00016911,0.00028848,0.,-0
 .00051965,0.00101456,0.,-0.00033111,-0.00025999,0.,0.00405093,0.,0.002
 05672,-0.00136335,0.00094830,0.00027149,-0.00023380,-0.00094830,0.0002
 7149,-0.00023380,0.,0.00035370,-0.00078864,0.,-0.00005946,0.00030855,0
 .,-0.00287220,0.00284274,-0.00076696,0.,0.,-0.00005687,-0.00057278,-0.
 00038364,-0.00005687,0.00057278,0.00038364,-0.00004535,0.,0.,0.0000973
 9,0.,0.,0.00000061,0.,0.,0.00082806,0.,-0.00287896,-0.00151890,-0.0012
 2861,-0.00016911,-0.00028850,0.00122861,-0.00016911,-0.00028850,0.,-0.
 00033109,0.00025999,0.,-0.00051967,-0.00101456,0.,0.00001701,-0.000021
 73,0.,0.00405093,0.,-0.00205672,-0.00136336,-0.00094830,-0.00027149,-0
 .00023379,0.00094830,-0.00027149,-0.00023379,0.,0.00005946,0.00030855,
 0.,-0.00035369,-0.00078864,0.,0.00002173,-0.00053171,0.,0.00287220,0.0
 0284274\\0.,0.00000005,0.,0.00000015,0.,0.,-0.00000015,0.,0.,0.,0.,0.,
 0.,0.,0.,0.,-0.00000001,0.00000001,0.,-0.00000001,-0.00000001\\\@


 The lyf so short, the craft so long to lerne.
                             -- Chaucer
 Job cpu time:       0 days  6 hours 32 minutes 48.9 seconds.
 Elapsed time:       0 days  1 hours 39 minutes 31.2 seconds.
 File lengths (MBytes):  RWF=    321 Int=      0 D2E=      0 Chk=     23 Scr=      1
 Normal termination of Gaussian 16 at Mon Jan 23 20:46:14 2023.
