 Entering Gaussian System, Link 0=/home/pcmt/gaussian/g16.C.01/g16/g16
 AtFile(1): /home/vallet/basis/U-ECP60MWB_SEG
 AtFile(1): /home/vallet/basis/Ar-ECP10MWB_SEG
 AtFile(1): /home/vallet/basis/U-ECP60MWB
 AtFile(1): /home/vallet/basis/Ar-ECP10MWB
 Initial command:
 /home/pcmt/gaussian/g16.C.01/g16/l1.exe "/state/partition1/vallet/922788.phlam-s-sakura/Gau-189904.inp" -scrdir="/state/partition1/vallet/922788.phlam-s-sakura/"
 Entering Link 1 = /home/pcmt/gaussian/g16.C.01/g16/l1.exe PID=    189905.
  
 Copyright (c) 1988-2019, Gaussian, Inc.  All Rights Reserved.
  
 This is part of the Gaussian(R) 16 program.  It is based on
 the Gaussian(R) 09 system (copyright 2009, Gaussian, Inc.),
 the Gaussian(R) 03 system (copyright 2003, Gaussian, Inc.),
 the Gaussian(R) 98 system (copyright 1998, Gaussian, Inc.),
 the Gaussian(R) 94 system (copyright 1995, Gaussian, Inc.),
 the Gaussian 92(TM) system (copyright 1992, Gaussian, Inc.),
 the Gaussian 90(TM) system (copyright 1990, Gaussian, Inc.),
 the Gaussian 88(TM) system (copyright 1988, Gaussian, Inc.),
 the Gaussian 86(TM) system (copyright 1986, Carnegie Mellon
 University), and the Gaussian 82(TM) system (copyright 1983,
 Carnegie Mellon University). Gaussian is a federally registered
 trademark of Gaussian, Inc.
  
 This software contains proprietary and confidential information,
 including trade secrets, belonging to Gaussian, Inc.
  
 This software is provided under written license and may be
 used, copied, transmitted, or stored only in accord with that
 written license.
  
 The following legend is applicable only to US Government
 contracts under FAR:
  
                    RESTRICTED RIGHTS LEGEND
  
 Use, reproduction and disclosure by the US Government is
 subject to restrictions as set forth in subparagraphs (a)
 and (c) of the Commercial Computer Software - Restricted
 Rights clause in FAR 52.227-19.
  
 Gaussian, Inc.
 340 Quinnipiac St., Bldg. 40, Wallingford CT 06492
  
  
 ---------------------------------------------------------------
 Warning -- This program may not be used in any manner that
 competes with the business of Gaussian, Inc. or will provide
 assistance to any competitor of Gaussian, Inc.  The licensee
 of this program is prohibited from giving any competitor of
 Gaussian, Inc. access to this program.  By using this program,
 the user acknowledges that Gaussian, Inc. is engaged in the
 business of creating and licensing software in the field of
 computational chemistry and represents and warrants to the
 licensee that it is not a competitor of Gaussian, Inc. and that
 it will not use this program in any manner prohibited above.
 ---------------------------------------------------------------
  

 Cite this work as:
 Gaussian 16, Revision C.01,
 M. J. Frisch, G. W. Trucks, H. B. Schlegel, G. E. Scuseria, 
 M. A. Robb, J. R. Cheeseman, G. Scalmani, V. Barone, 
 G. A. Petersson, H. Nakatsuji, X. Li, M. Caricato, A. V. Marenich, 
 J. Bloino, B. G. Janesko, R. Gomperts, B. Mennucci, H. P. Hratchian, 
 J. V. Ortiz, A. F. Izmaylov, J. L. Sonnenberg, D. Williams-Young, 
 F. Ding, F. Lipparini, F. Egidi, J. Goings, B. Peng, A. Petrone, 
 T. Henderson, D. Ranasinghe, V. G. Zakrzewski, J. Gao, N. Rega, 
 G. Zheng, W. Liang, M. Hada, M. Ehara, K. Toyota, R. Fukuda, 
 J. Hasegawa, M. Ishida, T. Nakajima, Y. Honda, O. Kitao, H. Nakai, 
 T. Vreven, K. Throssell, J. A. Montgomery, Jr., J. E. Peralta, 
 F. Ogliaro, M. J. Bearpark, J. J. Heyd, E. N. Brothers, K. N. Kudin, 
 V. N. Staroverov, T. A. Keith, R. Kobayashi, J. Normand, 
 K. Raghavachari, A. P. Rendell, J. C. Burant, S. S. Iyengar, 
 J. Tomasi, M. Cossi, J. M. Millam, M. Klene, C. Adamo, R. Cammi, 
 J. W. Ochterski, R. L. Martin, K. Morokuma, O. Farkas, 
 J. B. Foresman, and D. J. Fox, Gaussian, Inc., Wallingford CT, 2019.
 
 ******************************************
 Gaussian 16:  ES64L-G16RevC.01  3-Jul-2019
                23-Jan-2023 
 ******************************************
 %mem=8000Mb
 %NProc=4
 Will use up to    4 processors via shared memory.
 %oldchk=gs-uo2_cl2_2ar.pbe0-d3.optg.chk
 %chk=tddft-s1-uo2_cl2_2ar.pbe0-d3.optg.chk
 Copying data from "gs-uo2_cl2_2ar.pbe0-d3.optg.chk" to current chk file "tddft-s1-uo2_cl2_2ar.pbe0-d3.optg.chk"
 IOpt=  2 FromEx=T IUOpen= 4 IOptOp= 5 NList=   0 IFRang= 0 IUIn= 4 IUOut= 2.
 ----------------------------------------------------------------------
 #p PBE1PBE/GEN GFInput GFPrint 5D 7F Pseudo=Read IOP(2/9=2, 4/69=2, 6/
 7=3, 8/10=91, 8/37=32, 8/38=0) EmpiricalDispersion=GD3BJ Symm=(Loose) 
 Int=(UltraFine) Guess=(Read) Geom=CheckPoint Scf=(NoVarAcc,MaxCycle=10
 0,conver=8) td=(triplets,nstates=4,root=1) Opt=Tight
 ----------------------------------------------------------------------
 1/7=10,18=20,19=15,26=4,29=2,38=1/1,3;
 2/9=2,12=2,17=4,18=3,40=1/2;
 3/5=7,8=11,11=9,14=-4,16=1,17=8,24=110,25=1,30=1,71=1,74=-13,75=-5,116=-2,124=41/1,2,3,8;
 4/5=1,69=2/1;
 5/5=2,6=8,7=100,38=6/2;
 8/6=1,10=91,37=32,107=1,108=4/1;
 9/8=1,15=2,41=4,42=1,48=3,70=2/14;
 10/5=4,28=1/2;
 6/7=3,8=2,9=2,10=2/1;
 7/12=6,13=5,14=1/1,2,3,16;
 1/7=10,18=20,19=15,26=4/3(2);
 2/9=2/2;
 99//99;
 2/9=2/2;
 3/5=7,6=1,8=11,11=9,14=-2,16=1,17=8,25=1,30=1,71=1,74=-13,75=-5,82=7,124=41/1,2,3,8;
 4/5=5,16=3,69=2/1;
 5/5=2,6=8,7=100,38=1/2;
 8/6=1,10=91,37=32,107=1,108=4/1;
 9/8=1,15=2,41=4,42=1,48=3,49=4,70=2/14;
 10/5=4,28=1/2;
 7/12=6,13=5,14=1/1,2,3,16;
 1/7=10,18=20,19=15,26=4/3(-8);
 2/9=2/2;
 6/7=3,8=2,9=2,10=2/1;
 99/9=10/99;
 Leave Link    1 at Mon Jan 23 11:08:06 2023, MaxMem=  1048576000 cpu:               0.4 elap:               0.1
 (Enter /home/pcmt/gaussian/g16.C.01/g16/l101.exe)
 ------------------------------
 [UO2Cl2Ar2]2- - PBE0+D3BJ - GS
 ------------------------------
 Structure from the checkpoint file:  "tddft-s1-uo2_cl2_2ar.pbe0-d3.optg.chk"
 Charge =  0 Multiplicity = 1
 Redundant internal coordinates found in file.  (old form).
 U,0,0.,-0.4057596476,0.
 O,0,-1.725193714,-0.2272327641,0.
 O,0,1.725193714,-0.2272327641,0.
 Cl,0,0.,-1.8296657925,2.0765987711
 Cl,0,0.,-1.8296657925,-2.0765987711
 Ar,0,0.,2.1559924224,-1.9652262838
 Ar,0,0.,2.1559924224,1.9652262838
 Recover connectivity data from disk.
 ITRead=  0  0  0  0  0  0  0
 MicOpt= -1 -1 -1 -1 -1 -1 -1
 NAtoms=      7 NQM=        7 NQMF=       0 NMMI=      0 NMMIF=      0
                NMic=       0 NMicF=      0.
                    Isotopes and Nuclear Properties:
 (Nuclear quadrupole moments (NQMom) in fm**2, nuclear magnetic moments (NMagM)
  in nuclear magnetons)

  Atom         1           2           3           4           5           6           7
 IAtWgt=         238          16          16          35          35          40          40
 AtmWgt= 238.0508000  15.9949146  15.9949146  34.9688527  34.9688527  39.9623831  39.9623831
 NucSpn=           0           0           0           3           3           0           0
 AtZEff=   0.0000000   5.6000000   5.6000000  14.2400000  14.2400000 216.0000000 216.0000000
 NQMom=    0.0000000   0.0000000   0.0000000  -8.1650000  -8.1650000   0.0000000   0.0000000
 NMagM=    0.0000000   0.0000000   0.0000000   0.8218740   0.8218740   0.0000000   0.0000000
 AtZNuc=  92.0000000   8.0000000   8.0000000  17.0000000  17.0000000  18.0000000  18.0000000
 Leave Link  101 at Mon Jan 23 11:08:06 2023, MaxMem=  1048576000 cpu:               0.7 elap:               0.2
 (Enter /home/pcmt/gaussian/g16.C.01/g16/l103.exe)

 GradGradGradGradGradGradGradGradGradGradGradGradGradGradGradGradGradGrad
 Berny optimization.
 Initialization pass.
                           ----------------------------
                           !    Initial Parameters    !
                           ! (Angstroms and Degrees)  !
 --------------------------                            --------------------------
 ! Name  Definition              Value          Derivative Info.                !
 --------------------------------------------------------------------------------
 ! R1    R(1,2)                  1.7344         estimate D2E/DX2                !
 ! R2    R(1,3)                  1.7344         estimate D2E/DX2                !
 ! R3    R(1,4)                  2.5179         estimate D2E/DX2                !
 ! R4    R(1,5)                  2.5179         estimate D2E/DX2                !
 ! R5    R(1,6)                  3.2287         estimate D2E/DX2                !
 ! R6    R(1,7)                  3.2287         estimate D2E/DX2                !
 ! R7    R(4,7)                  3.9872         estimate D2E/DX2                !
 ! R8    R(5,6)                  3.9872         estimate D2E/DX2                !
 ! A1    A(2,1,4)               93.3371         estimate D2E/DX2                !
 ! A2    A(2,1,5)               93.3371         estimate D2E/DX2                !
 ! A3    A(2,1,6)               85.3155         estimate D2E/DX2                !
 ! A4    A(2,1,7)               85.3155         estimate D2E/DX2                !
 ! A5    A(3,1,4)               93.3371         estimate D2E/DX2                !
 ! A6    A(3,1,5)               93.3371         estimate D2E/DX2                !
 ! A7    A(3,1,6)               85.3155         estimate D2E/DX2                !
 ! A8    A(3,1,7)               85.3155         estimate D2E/DX2                !
 ! A9    A(4,1,5)              111.1238         estimate D2E/DX2                !
 ! A10   A(6,1,7)               74.9866         estimate D2E/DX2                !
 ! A11   L(2,1,3,4,-1)         186.6741         estimate D2E/DX2                !
 ! A12   L(4,1,6,3,-1)         178.6526         estimate D2E/DX2                !
 ! A13   L(5,1,7,3,-1)         178.6526         estimate D2E/DX2                !
 ! A14   L(2,1,3,4,-2)         189.7563         estimate D2E/DX2                !
 ! A15   L(4,1,6,3,-2)         198.0633         estimate D2E/DX2                !
 ! A16   L(5,1,7,3,-2)         161.9367         estimate D2E/DX2                !
 ! D1    D(2,1,5,4)            -94.8781         estimate D2E/DX2                !
 ! D2    D(2,1,6,4)             86.3959         estimate D2E/DX2                !
 ! D3    D(2,1,7,4)             93.6041         estimate D2E/DX2                !
 ! D4    D(2,1,6,5)            -93.6041         estimate D2E/DX2                !
 ! D5    D(2,1,7,5)            -86.3959         estimate D2E/DX2                !
 ! D6    D(2,1,7,6)            -86.3959         estimate D2E/DX2                !
 ! D7    D(3,1,5,4)             94.8781         estimate D2E/DX2                !
 ! D8    D(3,1,6,4)            -86.3959         estimate D2E/DX2                !
 ! D9    D(3,1,7,4)            -93.6041         estimate D2E/DX2                !
 ! D10   D(3,1,6,5)             93.6041         estimate D2E/DX2                !
 ! D11   D(3,1,7,5)             86.3959         estimate D2E/DX2                !
 ! D12   D(3,1,7,6)             86.3959         estimate D2E/DX2                !
 --------------------------------------------------------------------------------
 Trust Radius=3.00D-01 FncErr=1.00D-07 GrdErr=1.00D-06 EigMax=2.50D+02 EigMin=1.00D-04
 Number of steps in this run=     46 maximum allowed number of steps=    100.
 GradGradGradGradGradGradGradGradGradGradGradGradGradGradGradGradGradGrad

 Leave Link  103 at Mon Jan 23 11:08:06 2023, MaxMem=  1048576000 cpu:               0.0 elap:               0.0
 (Enter /home/pcmt/gaussian/g16.C.01/g16/l202.exe)
                          Input orientation:                          
 ---------------------------------------------------------------------
 Center     Atomic      Atomic             Coordinates (Angstroms)
 Number     Number       Type             X           Y           Z
 ---------------------------------------------------------------------
      1         92           0       -0.000000   -0.405760    0.000000
      2          8           0       -1.725194   -0.227233    0.000000
      3          8           0        1.725194   -0.227233   -0.000000
      4         17           0        0.000000   -1.829666    2.076599
      5         17           0       -0.000000   -1.829666   -2.076599
      6         18           0       -0.000000    2.155992   -1.965226
      7         18           0        0.000000    2.155992    1.965226
 ---------------------------------------------------------------------
                    Distance matrix (angstroms):
                    1          2          3          4          5
     1  U    0.000000
     2  O    1.734406   0.000000
     3  O    1.734406   3.450387   0.000000
     4  Cl   2.517890   3.139482   3.139482   0.000000
     5  Cl   2.517890   3.139482   3.139482   4.153198   0.000000
     6  Ar   3.228729   3.538103   3.538103   5.676427   3.987214
     7  Ar   3.228729   3.538103   3.538103   3.987214   5.676427
                    6          7
     6  Ar   0.000000
     7  Ar   3.930453   0.000000
 Stoichiometry    Ar2Cl2O2U
 Framework group  C2V[C2(U),SGV(Ar2Cl2),SGV'(O2)]
 Deg. of freedom     6
 Full point group                 C2V     NOp   4
 RotChk:  IX=0 Diff= 2.64D-16
 Largest Abelian subgroup         C2V     NOp   4
 Largest concise Abelian subgroup C2V     NOp   4
                         Standard orientation:                         
 ---------------------------------------------------------------------
 Center     Atomic      Atomic             Coordinates (Angstroms)
 Number     Number       Type             X           Y           Z
 ---------------------------------------------------------------------
      1         92           0        0.000000    0.000000    0.262172
      2          8           0       -1.725194    0.000000    0.083646
      3          8           0        1.725194   -0.000000    0.083646
      4         17           0        0.000000    2.076599    1.686079
      5         17           0       -0.000000   -2.076599    1.686079
      6         18           0        0.000000   -1.965226   -2.299580
      7         18           0        0.000000    1.965226   -2.299580
 ---------------------------------------------------------------------
 Rotational constants (GHZ):           0.7163625           0.6892161           0.4048462
 Leave Link  202 at Mon Jan 23 11:08:06 2023, MaxMem=  1048576000 cpu:               0.0 elap:               0.0
 (Enter /home/pcmt/gaussian/g16.C.01/g16/l301.exe)
 General basis read from cards:  (5D, 7F)
 Centers:       1
 S 3 1.00
     Exponent=  1.2098082000D+04 Coefficients=  1.0200000000D-04
     Exponent=  1.8337573000D+03 Coefficients=  7.7100000000D-04
     Exponent=  3.5168632000D+02 Coefficients=  2.9690000000D-03
 S 1 1.00
     Exponent=  1.0431426000D+02 Coefficients=  1.0000000000D+00
 S 3 1.00
     Exponent=  6.0905822000D+01 Coefficients=  4.9868000000D-02
     Exponent=  3.5515086000D+01 Coefficients= -2.4531300000D-01
     Exponent=  2.0891227000D+01 Coefficients=  7.2384700000D-01
 S 1 1.00
     Exponent=  1.0184647000D+01 Coefficients=  1.0000000000D+00
 S 1 1.00
     Exponent=  2.8518510000D+00 Coefficients=  1.0000000000D+00
 S 1 1.00
     Exponent=  1.5316160000D+00 Coefficients=  1.0000000000D+00
 S 1 1.00
     Exponent=  6.1620300000D-01 Coefficients=  1.0000000000D+00
 S 1 1.00
     Exponent=  2.7949400000D-01 Coefficients=  1.0000000000D+00
 S 1 1.00
     Exponent=  5.7253000000D-02 Coefficients=  1.0000000000D+00
 S 1 1.00
     Exponent=  2.3443000000D-02 Coefficients=  1.0000000000D+00
 P 5 1.00
     Exponent=  2.9068451000D+03 Coefficients=  8.8000000000D-05
     Exponent=  6.9440053000D+02 Coefficients=  7.3200000000D-04
     Exponent=  2.2463479000D+02 Coefficients=  3.4140000000D-03
     Exponent=  8.0520526000D+01 Coefficients=  1.1099000000D-02
     Exponent=  2.4080211000D+01 Coefficients=  2.5216000000D-02
 P 1 1.00
     Exponent=  1.4077580000D+01 Coefficients=  1.0000000000D+00
 P 1 1.00
     Exponent=  8.2658460000D+00 Coefficients=  1.0000000000D+00
 P 1 1.00
     Exponent=  3.4236070000D+00 Coefficients=  1.0000000000D+00
 P 1 1.00
     Exponent=  1.7084170000D+00 Coefficients=  1.0000000000D+00
 P 1 1.00
     Exponent=  6.5504600000D-01 Coefficients=  1.0000000000D+00
 P 1 1.00
     Exponent=  2.8375500000D-01 Coefficients=  1.0000000000D+00
 P 1 1.00
     Exponent=  1.0181400000D-01 Coefficients=  1.0000000000D+00
 P 1 1.00
     Exponent=  3.0535000000D-02 Coefficients=  1.0000000000D+00
 D 6 1.00
     Exponent=  4.4901953000D+02 Coefficients=  5.0000000000D-05
     Exponent=  1.5635695000D+02 Coefficients=  3.2200000000D-04
     Exponent=  6.0242439000D+01 Coefficients=  1.7770000000D-03
     Exponent=  1.7772317000D+01 Coefficients=  2.5385000000D-02
     Exponent=  1.0454304000D+01 Coefficients= -8.9378000000D-02
     Exponent=  3.5834330000D+00 Coefficients=  4.4479900000D-01
 D 1 1.00
     Exponent=  1.7637240000D+00 Coefficients=  1.0000000000D+00
 D 1 1.00
     Exponent=  7.8403000000D-01 Coefficients=  1.0000000000D+00
 D 1 1.00
     Exponent=  2.7612700000D-01 Coefficients=  1.0000000000D+00
 D 1 1.00
     Exponent=  8.6980000000D-02 Coefficients=  1.0000000000D+00
 F 5 1.00
     Exponent=  1.0528793000D+02 Coefficients=  2.2800000000D-04
     Exponent=  3.5101181000D+01 Coefficients=  2.3080000000D-03
     Exponent=  1.4564138000D+01 Coefficients=  9.2530000000D-03
     Exponent=  4.6518850000D+00 Coefficients=  1.3694900000D-01
     Exponent=  2.2559730000D+00 Coefficients=  3.3980100000D-01
 F 1 1.00
     Exponent=  1.0102740000D+00 Coefficients=  1.0000000000D+00
 F 1 1.00
     Exponent=  4.1168000000D-01 Coefficients=  1.0000000000D+00
 F 1 1.00
     Exponent=  1.4412000000D-01 Coefficients=  1.0000000000D+00
 G 4 1.00
     Exponent=  1.0528793000D+02 Coefficients=  1.3700000000D-04
     Exponent=  3.5101181000D+01 Coefficients=  1.8310000000D-03
     Exponent=  1.4564138000D+01 Coefficients=  1.9940000000D-02
     Exponent=  4.6518850000D+00 Coefficients=  1.1075800000D-01
 G 1 1.00
     Exponent=  2.2559730000D+00 Coefficients=  1.0000000000D+00
 G 1 1.00
     Exponent=  1.0102740000D+00 Coefficients=  1.0000000000D+00
 ****
 Centers:       6      7
 S 3 1.00
     Exponent=  1.7466965500D+02 Coefficients=  2.5870000000D-03
     Exponent=  1.2695768000D+01 Coefficients=  6.2313000000D-02
     Exponent=  2.9178340000D+00 Coefficients= -1.0421580000D+00
 S 1 1.00
     Exponent=  6.7084000000D-01 Coefficients=  1.0000000000D+00
 S 1 1.00
     Exponent=  2.9911200000D-01 Coefficients=  1.0000000000D+00
 S 1 1.00
     Exponent=  1.3140200000D-01 Coefficients=  1.0000000000D+00
 P 3 1.00
     Exponent=  1.9887221000D+01 Coefficients=  2.3346000000D-02
     Exponent=  3.7761720000D+00 Coefficients= -2.2462100000D-01
     Exponent=  1.2115160000D+00 Coefficients=  1.1375960000D+00
 P 1 1.00
     Exponent=  5.3849900000D-01 Coefficients=  1.0000000000D+00
 P 1 1.00
     Exponent=  2.2957500000D-01 Coefficients=  1.0000000000D+00
 P 1 1.00
     Exponent=  9.5103000000D-02 Coefficients=  1.0000000000D+00
 D 1 1.00
     Exponent=  1.4509000000D+00 Coefficients=  1.0000000000D+00
 D 1 1.00
     Exponent=  4.3850000000D-01 Coefficients=  1.0000000000D+00
 D 1 1.00
     Exponent=  1.3250000000D-01 Coefficients=  1.0000000000D+00
 F 1 1.00
     Exponent=  9.3050000000D-01 Coefficients=  1.0000000000D+00
 ****
 Centers:       4      5
 Def2TZVP
 ****
 Centers:       2      3
 Def2TZVP
 ****
 ======================================================================================================
                                       Pseudopotential Parameters
 ======================================================================================================
  Center     Atomic      Valence      Angular      Power
  Number     Number     Electrons     Momentum     of R      Exponent        Coefficient   SO-Coeffient
 ======================================================================================================
    1         92           32
                                      H and up 
                                                     2        1.0000000        0.00000000    0.00000000
                                      S - H
                                                     2       16.4140387      536.51662778    0.00000000
                                      P - H
                                                     2        9.0605561      169.54492465    0.00000000
                                      D - H
                                                     2        8.8318320      142.61559837    0.00000000
                                      F - H
                                                     2        7.0185163       60.39307602    0.00000000
                                      G - H
                                                     2       12.8040884      -60.12998958    0.00000000
    2          8
                                   No pseudopotential on this center.
    3          8
                                   No pseudopotential on this center.
    4         17
                                   No pseudopotential on this center.
    5         17
                                   No pseudopotential on this center.
    6         18            8
                                      G and up 
                                                     2        1.0000000        0.00000000    0.00000000
                                      S - G
                                                     2       10.2617210       68.66778801    0.00000000
                                                     2        3.9527250       24.04276629    0.00000000
                                      P - G
                                                     2        5.3927140       27.73076331    0.00000000
                                                     2        2.6999670        4.04545904    0.00000000
                                      D - G
                                                     2        8.0862350       -8.13747696    0.00000000
                                                     2        4.0166320       -1.66452808    0.00000000
                                      F - G
                                                     2        5.2084590       -3.40009845    0.00000000
    7         18            8
                                      G and up 
                                                     2        1.0000000        0.00000000    0.00000000
                                      S - G
                                                     2       10.2617210       68.66778801    0.00000000
                                                     2        3.9527250       24.04276629    0.00000000
                                      P - G
                                                     2        5.3927140       27.73076331    0.00000000
                                                     2        2.6999670        4.04545904    0.00000000
                                      D - G
                                                     2        8.0862350       -8.13747696    0.00000000
                                                     2        4.0166320       -1.66452808    0.00000000
                                      F - G
                                                     2        5.2084590       -3.40009845    0.00000000
 ======================================================================================================
 Ernie: Thresh=  0.10000D-02 Tol=  0.10000D-05 Strict=F.
 AO basis set in the form of general basis input (Overlap normalization):
      1 0
 S   3 1.00       0.000000000000
      0.1209808200D+05  0.2884168448D-01
      0.1833757300D+04  0.2180092033D+00
      0.3516863200D+03  0.8395192276D+00
 S   3 1.00       0.000000000000
      0.6090582200D+02  0.9338504807D-01
      0.3551508600D+02 -0.4593840999D+00
      0.2089122700D+02  0.1355508280D+01
 S   1 1.00       0.000000000000
      0.1043142600D+03  0.1000000000D+01
 S   1 1.00       0.000000000000
      0.1018464700D+02  0.1000000000D+01
 S   1 1.00       0.000000000000
      0.2851851000D+01  0.1000000000D+01
 S   1 1.00       0.000000000000
      0.1531616000D+01  0.1000000000D+01
 S   1 1.00       0.000000000000
      0.6162030000D+00  0.1000000000D+01
 S   1 1.00       0.000000000000
      0.2794940000D+00  0.1000000000D+01
 S   1 1.00       0.000000000000
      0.5725300000D-01  0.1000000000D+01
 S   1 1.00       0.000000000000
      0.2344300000D-01  0.1000000000D+01
 P   5 1.00       0.000000000000
      0.2906845100D+04  0.2490724940D-02
      0.6944005300D+03  0.2071830291D-01
      0.2246347900D+03  0.9662880620D-01
      0.8052052600D+02  0.3141426831D+00
      0.2408021100D+02  0.7137059101D+00
 P   1 1.00       0.000000000000
      0.1407758000D+02  0.1000000000D+01
 P   1 1.00       0.000000000000
      0.8265846000D+01  0.1000000000D+01
 P   1 1.00       0.000000000000
      0.3423607000D+01  0.1000000000D+01
 P   1 1.00       0.000000000000
      0.1708417000D+01  0.1000000000D+01
 P   1 1.00       0.000000000000
      0.6550460000D+00  0.1000000000D+01
 P   1 1.00       0.000000000000
      0.2837550000D+00  0.1000000000D+01
 P   1 1.00       0.000000000000
      0.1018140000D+00  0.1000000000D+01
 P   1 1.00       0.000000000000
      0.3053500000D-01  0.1000000000D+01
 D   6 1.00       0.000000000000
      0.4490195300D+03  0.1244413406D-03
      0.1563569500D+03  0.8014022332D-03
      0.6024243900D+02  0.4422645243D-02
      0.1777231700D+02  0.6317886860D-01
      0.1045430400D+02 -0.2224463627D+00
      0.3583433000D+01  0.1107027677D+01
 D   1 1.00       0.000000000000
      0.1763724000D+01  0.1000000000D+01
 D   1 1.00       0.000000000000
      0.7840300000D+00  0.1000000000D+01
 D   1 1.00       0.000000000000
      0.2761270000D+00  0.1000000000D+01
 D   1 1.00       0.000000000000
      0.8698000000D-01  0.1000000000D+01
 F   5 1.00       0.000000000000
      0.1052879300D+03  0.5015876177D-03
      0.3510118100D+02  0.5077474656D-02
      0.1456413800D+02  0.2035609748D-01
      0.4651885000D+01  0.3012803625D+00
      0.2255973000D+01  0.7475437460D+00
 F   1 1.00       0.000000000000
      0.1010274000D+01  0.1000000000D+01
 F   1 1.00       0.000000000000
      0.4116800000D+00  0.1000000000D+01
 F   1 1.00       0.000000000000
      0.1441200000D+00  0.1000000000D+01
 G   4 1.00       0.000000000000
      0.1052879300D+03  0.1132460043D-02
      0.3510118100D+02  0.1513528715D-01
      0.1456413800D+02  0.1648266662D+00
      0.4651885000D+01  0.9155402153D+00
 G   1 1.00       0.000000000000
      0.2255973000D+01  0.1000000000D+01
 G   1 1.00       0.000000000000
      0.1010274000D+01  0.1000000000D+01
 ****
      2 0
 S   6 1.00       0.000000000000
      0.2703238263D+05  0.5722733521D-03
      0.4052387139D+04  0.4435323349D-02
      0.9223272271D+03  0.2302010771D-01
      0.2612407099D+03  0.9282249067D-01
      0.8535464135D+02  0.2937850001D+00
      0.3103503524D+02  0.6740160450D+00
 S   2 1.00       0.000000000000
      0.1226086073D+02  0.6383993703D+00
      0.4998707601D+01  0.3953458713D+00
 S   1 1.00       0.000000000000
      0.1170310816D+01  0.1000000000D+01
 S   1 1.00       0.000000000000
      0.4647474099D+00  0.1000000000D+01
 S   1 1.00       0.000000000000
      0.1850453636D+00  0.1000000000D+01
 P   4 1.00       0.000000000000
      0.6327495480D+02  0.1201833222D-01
      0.1462704938D+02  0.8300542179D-01
      0.4450122346D+01  0.3199174393D+00
      0.1527579965D+01  0.7071554292D+00
 P   1 1.00       0.000000000000
      0.5293511794D+00  0.1000000000D+01
 P   1 1.00       0.000000000000
      0.1747842127D+00  0.1000000000D+01
 D   1 1.00       0.000000000000
      0.2314000000D+01  0.1000000000D+01
 D   1 1.00       0.000000000000
      0.6450000000D+00  0.1000000000D+01
 F   1 1.00       0.000000000000
      0.1428000000D+01  0.1000000000D+01
 ****
      3 0
 S   6 1.00       0.000000000000
      0.2703238263D+05  0.5722733521D-03
      0.4052387139D+04  0.4435323349D-02
      0.9223272271D+03  0.2302010771D-01
      0.2612407099D+03  0.9282249067D-01
      0.8535464135D+02  0.2937850001D+00
      0.3103503524D+02  0.6740160450D+00
 S   2 1.00       0.000000000000
      0.1226086073D+02  0.6383993703D+00
      0.4998707601D+01  0.3953458713D+00
 S   1 1.00       0.000000000000
      0.1170310816D+01  0.1000000000D+01
 S   1 1.00       0.000000000000
      0.4647474099D+00  0.1000000000D+01
 S   1 1.00       0.000000000000
      0.1850453636D+00  0.1000000000D+01
 P   4 1.00       0.000000000000
      0.6327495480D+02  0.1201833222D-01
      0.1462704938D+02  0.8300542179D-01
      0.4450122346D+01  0.3199174393D+00
      0.1527579965D+01  0.7071554292D+00
 P   1 1.00       0.000000000000
      0.5293511794D+00  0.1000000000D+01
 P   1 1.00       0.000000000000
      0.1747842127D+00  0.1000000000D+01
 D   1 1.00       0.000000000000
      0.2314000000D+01  0.1000000000D+01
 D   1 1.00       0.000000000000
      0.6450000000D+00  0.1000000000D+01
 F   1 1.00       0.000000000000
      0.1428000000D+01  0.1000000000D+01
 ****
      4 0
 S   7 1.00       0.000000000000
      0.6950799094D+05  0.5145738965D-03
      0.1042615688D+05  0.3978134481D-02
      0.2373233406D+04  0.2045617867D-01
      0.6715642007D+03  0.8014810289D-01
      0.2184199979D+03  0.2345477032D+00
      0.7757224971D+02  0.4454336858D+00
      0.2888881528D+02  0.3546684250D+00
 S   3 1.00       0.000000000000
      0.1271052718D+03  0.1129368805D+00
      0.3933958296D+02  0.4837351421D+00
      0.7674067999D+01 -0.1229229739D+01
 S   2 1.00       0.000000000000
      0.3874562763D+01  0.6729682164D+00
      0.1838583257D+01  0.3495605141D+00
 S   1 1.00       0.000000000000
      0.5022905754D+00  0.1000000000D+01
 S   1 1.00       0.000000000000
      0.1796272342D+00  0.1000000000D+01
 P   5 1.00       0.000000000000
      0.6665042328D+03  0.3350250820D-02
      0.1576424169D+03  0.2676397041D-01
      0.5026252098D+02  0.1236268236D+00
      0.1853607811D+02  0.3584578792D+00
      0.7294053278D+01  0.6167729635D+00
 P   1 1.00       0.000000000000
      0.2943324899D+01  0.1000000000D+01
 P   1 1.00       0.000000000000
      0.1040497082D+01  0.1000000000D+01
 P   1 1.00       0.000000000000
      0.3845641508D+00  0.1000000000D+01
 P   1 1.00       0.000000000000
      0.1306964273D+00  0.1000000000D+01
 D   2 1.00       0.000000000000
      0.4610000000D+01  0.1826583505D+00
      0.1011000000D+01  0.9132917523D+00
 D   1 1.00       0.000000000000
      0.3390000000D+00  0.1000000000D+01
 F   1 1.00       0.000000000000
      0.7060000000D+00  0.1000000000D+01
 ****
      5 0
 S   7 1.00       0.000000000000
      0.6950799094D+05  0.5145738965D-03
      0.1042615688D+05  0.3978134481D-02
      0.2373233406D+04  0.2045617867D-01
      0.6715642007D+03  0.8014810289D-01
      0.2184199979D+03  0.2345477032D+00
      0.7757224971D+02  0.4454336858D+00
      0.2888881528D+02  0.3546684250D+00
 S   3 1.00       0.000000000000
      0.1271052718D+03  0.1129368805D+00
      0.3933958296D+02  0.4837351421D+00
      0.7674067999D+01 -0.1229229739D+01
 S   2 1.00       0.000000000000
      0.3874562763D+01  0.6729682164D+00
      0.1838583257D+01  0.3495605141D+00
 S   1 1.00       0.000000000000
      0.5022905754D+00  0.1000000000D+01
 S   1 1.00       0.000000000000
      0.1796272342D+00  0.1000000000D+01
 P   5 1.00       0.000000000000
      0.6665042328D+03  0.3350250820D-02
      0.1576424169D+03  0.2676397041D-01
      0.5026252098D+02  0.1236268236D+00
      0.1853607811D+02  0.3584578792D+00
      0.7294053278D+01  0.6167729635D+00
 P   1 1.00       0.000000000000
      0.2943324899D+01  0.1000000000D+01
 P   1 1.00       0.000000000000
      0.1040497082D+01  0.1000000000D+01
 P   1 1.00       0.000000000000
      0.3845641508D+00  0.1000000000D+01
 P   1 1.00       0.000000000000
      0.1306964273D+00  0.1000000000D+01
 D   2 1.00       0.000000000000
      0.4610000000D+01  0.1826583505D+00
      0.1011000000D+01  0.9132917523D+00
 D   1 1.00       0.000000000000
      0.3390000000D+00  0.1000000000D+01
 F   1 1.00       0.000000000000
      0.7060000000D+00  0.1000000000D+01
 ****
      6 0
 S   3 1.00       0.000000000000
      0.1746696550D+03  0.2587000790D-02
      0.1269576800D+02  0.6231301902D-01
      0.2917834000D+01 -0.1042158318D+01
 S   1 1.00       0.000000000000
      0.6708400000D+00  0.1000000000D+01
 S   1 1.00       0.000000000000
      0.2991120000D+00  0.1000000000D+01
 S   1 1.00       0.000000000000
      0.1314020000D+00  0.1000000000D+01
 P   3 1.00       0.000000000000
      0.1988722100D+02  0.2334600819D-01
      0.3776172000D+01 -0.2246210788D+00
      0.1211516000D+01  0.1137596399D+01
 P   1 1.00       0.000000000000
      0.5384990000D+00  0.1000000000D+01
 P   1 1.00       0.000000000000
      0.2295750000D+00  0.1000000000D+01
 P   1 1.00       0.000000000000
      0.9510300000D-01  0.1000000000D+01
 D   1 1.00       0.000000000000
      0.1450900000D+01  0.1000000000D+01
 D   1 1.00       0.000000000000
      0.4385000000D+00  0.1000000000D+01
 D   1 1.00       0.000000000000
      0.1325000000D+00  0.1000000000D+01
 F   1 1.00       0.000000000000
      0.9305000000D+00  0.1000000000D+01
 ****
      7 0
 S   3 1.00       0.000000000000
      0.1746696550D+03  0.2587000790D-02
      0.1269576800D+02  0.6231301902D-01
      0.2917834000D+01 -0.1042158318D+01
 S   1 1.00       0.000000000000
      0.6708400000D+00  0.1000000000D+01
 S   1 1.00       0.000000000000
      0.2991120000D+00  0.1000000000D+01
 S   1 1.00       0.000000000000
      0.1314020000D+00  0.1000000000D+01
 P   3 1.00       0.000000000000
      0.1988722100D+02  0.2334600819D-01
      0.3776172000D+01 -0.2246210788D+00
      0.1211516000D+01  0.1137596399D+01
 P   1 1.00       0.000000000000
      0.5384990000D+00  0.1000000000D+01
 P   1 1.00       0.000000000000
      0.2295750000D+00  0.1000000000D+01
 P   1 1.00       0.000000000000
      0.9510300000D-01  0.1000000000D+01
 D   1 1.00       0.000000000000
      0.1450900000D+01  0.1000000000D+01
 D   1 1.00       0.000000000000
      0.4385000000D+00  0.1000000000D+01
 D   1 1.00       0.000000000000
      0.1325000000D+00  0.1000000000D+01
 F   1 1.00       0.000000000000
      0.9305000000D+00  0.1000000000D+01
 ****

 AO basis set (Overlap normalization):
 Atom U1       Shell     1 S   3     bf    1 -     1          0.000000000000          0.000000000000          0.495434124017
      0.1209808200D+05  0.2884168448D-01
      0.1833757300D+04  0.2180092033D+00
      0.3516863200D+03  0.8395192276D+00
 Atom U1       Shell     2 S   3     bf    2 -     2          0.000000000000          0.000000000000          0.495434124017
      0.6090582200D+02  0.9338504807D-01
      0.3551508600D+02 -0.4593840999D+00
      0.2089122700D+02  0.1355508280D+01
 Atom U1       Shell     3 S   1     bf    3 -     3          0.000000000000          0.000000000000          0.495434124017
      0.1043142600D+03  0.1000000000D+01
 Atom U1       Shell     4 S   1     bf    4 -     4          0.000000000000          0.000000000000          0.495434124017
      0.1018464700D+02  0.1000000000D+01
 Atom U1       Shell     5 S   1     bf    5 -     5          0.000000000000          0.000000000000          0.495434124017
      0.2851851000D+01  0.1000000000D+01
 Atom U1       Shell     6 S   1     bf    6 -     6          0.000000000000          0.000000000000          0.495434124017
      0.1531616000D+01  0.1000000000D+01
 Atom U1       Shell     7 S   1     bf    7 -     7          0.000000000000          0.000000000000          0.495434124017
      0.6162030000D+00  0.1000000000D+01
 Atom U1       Shell     8 S   1     bf    8 -     8          0.000000000000          0.000000000000          0.495434124017
      0.2794940000D+00  0.1000000000D+01
 Atom U1       Shell     9 S   1     bf    9 -     9          0.000000000000          0.000000000000          0.495434124017
      0.5725300000D-01  0.1000000000D+01
 Atom U1       Shell    10 S   1     bf   10 -    10          0.000000000000          0.000000000000          0.495434124017
      0.2344300000D-01  0.1000000000D+01
 Atom U1       Shell    11 P   5     bf   11 -    13          0.000000000000          0.000000000000          0.495434124017
      0.2906845100D+04  0.2490724940D-02
      0.6944005300D+03  0.2071830291D-01
      0.2246347900D+03  0.9662880620D-01
      0.8052052600D+02  0.3141426831D+00
      0.2408021100D+02  0.7137059101D+00
 Atom U1       Shell    12 P   1     bf   14 -    16          0.000000000000          0.000000000000          0.495434124017
      0.1407758000D+02  0.1000000000D+01
 Atom U1       Shell    13 P   1     bf   17 -    19          0.000000000000          0.000000000000          0.495434124017
      0.8265846000D+01  0.1000000000D+01
 Atom U1       Shell    14 P   1     bf   20 -    22          0.000000000000          0.000000000000          0.495434124017
      0.3423607000D+01  0.1000000000D+01
 Atom U1       Shell    15 P   1     bf   23 -    25          0.000000000000          0.000000000000          0.495434124017
      0.1708417000D+01  0.1000000000D+01
 Atom U1       Shell    16 P   1     bf   26 -    28          0.000000000000          0.000000000000          0.495434124017
      0.6550460000D+00  0.1000000000D+01
 Atom U1       Shell    17 P   1     bf   29 -    31          0.000000000000          0.000000000000          0.495434124017
      0.2837550000D+00  0.1000000000D+01
 Atom U1       Shell    18 P   1     bf   32 -    34          0.000000000000          0.000000000000          0.495434124017
      0.1018140000D+00  0.1000000000D+01
 Atom U1       Shell    19 P   1     bf   35 -    37          0.000000000000          0.000000000000          0.495434124017
      0.3053500000D-01  0.1000000000D+01
 Atom U1       Shell    20 D   6     bf   38 -    42          0.000000000000          0.000000000000          0.495434124017
      0.4490195300D+03  0.1244413406D-03
      0.1563569500D+03  0.8014022332D-03
      0.6024243900D+02  0.4422645243D-02
      0.1777231700D+02  0.6317886860D-01
      0.1045430400D+02 -0.2224463627D+00
      0.3583433000D+01  0.1107027677D+01
 Atom U1       Shell    21 D   1     bf   43 -    47          0.000000000000          0.000000000000          0.495434124017
      0.1763724000D+01  0.1000000000D+01
 Atom U1       Shell    22 D   1     bf   48 -    52          0.000000000000          0.000000000000          0.495434124017
      0.7840300000D+00  0.1000000000D+01
 Atom U1       Shell    23 D   1     bf   53 -    57          0.000000000000          0.000000000000          0.495434124017
      0.2761270000D+00  0.1000000000D+01
 Atom U1       Shell    24 D   1     bf   58 -    62          0.000000000000          0.000000000000          0.495434124017
      0.8698000000D-01  0.1000000000D+01
 Atom U1       Shell    25 F   5     bf   63 -    69          0.000000000000          0.000000000000          0.495434124017
      0.1052879300D+03  0.5015876177D-03
      0.3510118100D+02  0.5077474656D-02
      0.1456413800D+02  0.2035609748D-01
      0.4651885000D+01  0.3012803625D+00
      0.2255973000D+01  0.7475437460D+00
 Atom U1       Shell    26 F   1     bf   70 -    76          0.000000000000          0.000000000000          0.495434124017
      0.1010274000D+01  0.1000000000D+01
 Atom U1       Shell    27 F   1     bf   77 -    83          0.000000000000          0.000000000000          0.495434124017
      0.4116800000D+00  0.1000000000D+01
 Atom U1       Shell    28 F   1     bf   84 -    90          0.000000000000          0.000000000000          0.495434124017
      0.1441200000D+00  0.1000000000D+01
 Atom U1       Shell    29 G   4     bf   91 -    99          0.000000000000          0.000000000000          0.495434124017
      0.1052879300D+03  0.1132460043D-02
      0.3510118100D+02  0.1513528715D-01
      0.1456413800D+02  0.1648266662D+00
      0.4651885000D+01  0.9155402153D+00
 Atom U1       Shell    30 G   1     bf  100 -   108          0.000000000000          0.000000000000          0.495434124017
      0.2255973000D+01  0.1000000000D+01
 Atom U1       Shell    31 G   1     bf  109 -   117          0.000000000000          0.000000000000          0.495434124017
      0.1010274000D+01  0.1000000000D+01
 Atom O2       Shell    32 S   6     bf  118 -   118         -3.260143631203          0.000000000000          0.158067208218
      0.2703238263D+05  0.5722733521D-03
      0.4052387139D+04  0.4435323349D-02
      0.9223272271D+03  0.2302010771D-01
      0.2612407099D+03  0.9282249067D-01
      0.8535464135D+02  0.2937850001D+00
      0.3103503524D+02  0.6740160450D+00
 Atom O2       Shell    33 S   2     bf  119 -   119         -3.260143631203          0.000000000000          0.158067208218
      0.1226086073D+02  0.6383993703D+00
      0.4998707601D+01  0.3953458713D+00
 Atom O2       Shell    34 S   1     bf  120 -   120         -3.260143631203          0.000000000000          0.158067208218
      0.1170310816D+01  0.1000000000D+01
 Atom O2       Shell    35 S   1     bf  121 -   121         -3.260143631203          0.000000000000          0.158067208218
      0.4647474099D+00  0.1000000000D+01
 Atom O2       Shell    36 S   1     bf  122 -   122         -3.260143631203          0.000000000000          0.158067208218
      0.1850453636D+00  0.1000000000D+01
 Atom O2       Shell    37 P   4     bf  123 -   125         -3.260143631203          0.000000000000          0.158067208218
      0.6327495480D+02  0.1201833222D-01
      0.1462704938D+02  0.8300542179D-01
      0.4450122346D+01  0.3199174393D+00
      0.1527579965D+01  0.7071554292D+00
 Atom O2       Shell    38 P   1     bf  126 -   128         -3.260143631203          0.000000000000          0.158067208218
      0.5293511794D+00  0.1000000000D+01
 Atom O2       Shell    39 P   1     bf  129 -   131         -3.260143631203          0.000000000000          0.158067208218
      0.1747842127D+00  0.1000000000D+01
 Atom O2       Shell    40 D   1     bf  132 -   136         -3.260143631203          0.000000000000          0.158067208218
      0.2314000000D+01  0.1000000000D+01
 Atom O2       Shell    41 D   1     bf  137 -   141         -3.260143631203          0.000000000000          0.158067208218
      0.6450000000D+00  0.1000000000D+01
 Atom O2       Shell    42 F   1     bf  142 -   148         -3.260143631203          0.000000000000          0.158067208218
      0.1428000000D+01  0.1000000000D+01
 Atom O3       Shell    43 S   6     bf  149 -   149          3.260143631203         -0.000000000000          0.158067208218
      0.2703238263D+05  0.5722733521D-03
      0.4052387139D+04  0.4435323349D-02
      0.9223272271D+03  0.2302010771D-01
      0.2612407099D+03  0.9282249067D-01
      0.8535464135D+02  0.2937850001D+00
      0.3103503524D+02  0.6740160450D+00
 Atom O3       Shell    44 S   2     bf  150 -   150          3.260143631203         -0.000000000000          0.158067208218
      0.1226086073D+02  0.6383993703D+00
      0.4998707601D+01  0.3953458713D+00
 Atom O3       Shell    45 S   1     bf  151 -   151          3.260143631203         -0.000000000000          0.158067208218
      0.1170310816D+01  0.1000000000D+01
 Atom O3       Shell    46 S   1     bf  152 -   152          3.260143631203         -0.000000000000          0.158067208218
      0.4647474099D+00  0.1000000000D+01
 Atom O3       Shell    47 S   1     bf  153 -   153          3.260143631203         -0.000000000000          0.158067208218
      0.1850453636D+00  0.1000000000D+01
 Atom O3       Shell    48 P   4     bf  154 -   156          3.260143631203         -0.000000000000          0.158067208218
      0.6327495480D+02  0.1201833222D-01
      0.1462704938D+02  0.8300542179D-01
      0.4450122346D+01  0.3199174393D+00
      0.1527579965D+01  0.7071554292D+00
 Atom O3       Shell    49 P   1     bf  157 -   159          3.260143631203         -0.000000000000          0.158067208218
      0.5293511794D+00  0.1000000000D+01
 Atom O3       Shell    50 P   1     bf  160 -   162          3.260143631203         -0.000000000000          0.158067208218
      0.1747842127D+00  0.1000000000D+01
 Atom O3       Shell    51 D   1     bf  163 -   167          3.260143631203         -0.000000000000          0.158067208218
      0.2314000000D+01  0.1000000000D+01
 Atom O3       Shell    52 D   1     bf  168 -   172          3.260143631203         -0.000000000000          0.158067208218
      0.6450000000D+00  0.1000000000D+01
 Atom O3       Shell    53 F   1     bf  173 -   179          3.260143631203         -0.000000000000          0.158067208218
      0.1428000000D+01  0.1000000000D+01
 Atom Cl4      Shell    54 S   7     bf  180 -   180          0.000000000000          3.924202948047          3.186226764811
      0.6950799094D+05  0.5145738965D-03
      0.1042615688D+05  0.3978134481D-02
      0.2373233406D+04  0.2045617867D-01
      0.6715642007D+03  0.8014810289D-01
      0.2184199979D+03  0.2345477032D+00
      0.7757224971D+02  0.4454336858D+00
      0.2888881528D+02  0.3546684250D+00
 Atom Cl4      Shell    55 S   3     bf  181 -   181          0.000000000000          3.924202948047          3.186226764811
      0.1271052718D+03  0.1129368805D+00
      0.3933958296D+02  0.4837351421D+00
      0.7674067999D+01 -0.1229229739D+01
 Atom Cl4      Shell    56 S   2     bf  182 -   182          0.000000000000          3.924202948047          3.186226764811
      0.3874562763D+01  0.6729682164D+00
      0.1838583257D+01  0.3495605141D+00
 Atom Cl4      Shell    57 S   1     bf  183 -   183          0.000000000000          3.924202948047          3.186226764811
      0.5022905754D+00  0.1000000000D+01
 Atom Cl4      Shell    58 S   1     bf  184 -   184          0.000000000000          3.924202948047          3.186226764811
      0.1796272342D+00  0.1000000000D+01
 Atom Cl4      Shell    59 P   5     bf  185 -   187          0.000000000000          3.924202948047          3.186226764811
      0.6665042328D+03  0.3350250820D-02
      0.1576424169D+03  0.2676397041D-01
      0.5026252098D+02  0.1236268236D+00
      0.1853607811D+02  0.3584578792D+00
      0.7294053278D+01  0.6167729635D+00
 Atom Cl4      Shell    60 P   1     bf  188 -   190          0.000000000000          3.924202948047          3.186226764811
      0.2943324899D+01  0.1000000000D+01
 Atom Cl4      Shell    61 P   1     bf  191 -   193          0.000000000000          3.924202948047          3.186226764811
      0.1040497082D+01  0.1000000000D+01
 Atom Cl4      Shell    62 P   1     bf  194 -   196          0.000000000000          3.924202948047          3.186226764811
      0.3845641508D+00  0.1000000000D+01
 Atom Cl4      Shell    63 P   1     bf  197 -   199          0.000000000000          3.924202948047          3.186226764811
      0.1306964273D+00  0.1000000000D+01
 Atom Cl4      Shell    64 D   2     bf  200 -   204          0.000000000000          3.924202948047          3.186226764811
      0.4610000000D+01  0.1826583505D+00
      0.1011000000D+01  0.9132917523D+00
 Atom Cl4      Shell    65 D   1     bf  205 -   209          0.000000000000          3.924202948047          3.186226764811
      0.3390000000D+00  0.1000000000D+01
 Atom Cl4      Shell    66 F   1     bf  210 -   216          0.000000000000          3.924202948047          3.186226764811
      0.7060000000D+00  0.1000000000D+01
 Atom Cl5      Shell    67 S   7     bf  217 -   217         -0.000000000000         -3.924202948047          3.186226764811
      0.6950799094D+05  0.5145738965D-03
      0.1042615688D+05  0.3978134481D-02
      0.2373233406D+04  0.2045617867D-01
      0.6715642007D+03  0.8014810289D-01
      0.2184199979D+03  0.2345477032D+00
      0.7757224971D+02  0.4454336858D+00
      0.2888881528D+02  0.3546684250D+00
 Atom Cl5      Shell    68 S   3     bf  218 -   218         -0.000000000000         -3.924202948047          3.186226764811
      0.1271052718D+03  0.1129368805D+00
      0.3933958296D+02  0.4837351421D+00
      0.7674067999D+01 -0.1229229739D+01
 Atom Cl5      Shell    69 S   2     bf  219 -   219         -0.000000000000         -3.924202948047          3.186226764811
      0.3874562763D+01  0.6729682164D+00
      0.1838583257D+01  0.3495605141D+00
 Atom Cl5      Shell    70 S   1     bf  220 -   220         -0.000000000000         -3.924202948047          3.186226764811
      0.5022905754D+00  0.1000000000D+01
 Atom Cl5      Shell    71 S   1     bf  221 -   221         -0.000000000000         -3.924202948047          3.186226764811
      0.1796272342D+00  0.1000000000D+01
 Atom Cl5      Shell    72 P   5     bf  222 -   224         -0.000000000000         -3.924202948047          3.186226764811
      0.6665042328D+03  0.3350250820D-02
      0.1576424169D+03  0.2676397041D-01
      0.5026252098D+02  0.1236268236D+00
      0.1853607811D+02  0.3584578792D+00
      0.7294053278D+01  0.6167729635D+00
 Atom Cl5      Shell    73 P   1     bf  225 -   227         -0.000000000000         -3.924202948047          3.186226764811
      0.2943324899D+01  0.1000000000D+01
 Atom Cl5      Shell    74 P   1     bf  228 -   230         -0.000000000000         -3.924202948047          3.186226764811
      0.1040497082D+01  0.1000000000D+01
 Atom Cl5      Shell    75 P   1     bf  231 -   233         -0.000000000000         -3.924202948047          3.186226764811
      0.3845641508D+00  0.1000000000D+01
 Atom Cl5      Shell    76 P   1     bf  234 -   236         -0.000000000000         -3.924202948047          3.186226764811
      0.1306964273D+00  0.1000000000D+01
 Atom Cl5      Shell    77 D   2     bf  237 -   241         -0.000000000000         -3.924202948047          3.186226764811
      0.4610000000D+01  0.1826583505D+00
      0.1011000000D+01  0.9132917523D+00
 Atom Cl5      Shell    78 D   1     bf  242 -   246         -0.000000000000         -3.924202948047          3.186226764811
      0.3390000000D+00  0.1000000000D+01
 Atom Cl5      Shell    79 F   1     bf  247 -   253         -0.000000000000         -3.924202948047          3.186226764811
      0.7060000000D+00  0.1000000000D+01
 Atom Ar6      Shell    80 S   3     bf  254 -   254          0.000000000000         -3.713739449144         -4.345575687350
      0.1746696550D+03  0.2587000790D-02
      0.1269576800D+02  0.6231301902D-01
      0.2917834000D+01 -0.1042158318D+01
 Atom Ar6      Shell    81 S   1     bf  255 -   255          0.000000000000         -3.713739449144         -4.345575687350
      0.6708400000D+00  0.1000000000D+01
 Atom Ar6      Shell    82 S   1     bf  256 -   256          0.000000000000         -3.713739449144         -4.345575687350
      0.2991120000D+00  0.1000000000D+01
 Atom Ar6      Shell    83 S   1     bf  257 -   257          0.000000000000         -3.713739449144         -4.345575687350
      0.1314020000D+00  0.1000000000D+01
 Atom Ar6      Shell    84 P   3     bf  258 -   260          0.000000000000         -3.713739449144         -4.345575687350
      0.1988722100D+02  0.2334600819D-01
      0.3776172000D+01 -0.2246210788D+00
      0.1211516000D+01  0.1137596399D+01
 Atom Ar6      Shell    85 P   1     bf  261 -   263          0.000000000000         -3.713739449144         -4.345575687350
      0.5384990000D+00  0.1000000000D+01
 Atom Ar6      Shell    86 P   1     bf  264 -   266          0.000000000000         -3.713739449144         -4.345575687350
      0.2295750000D+00  0.1000000000D+01
 Atom Ar6      Shell    87 P   1     bf  267 -   269          0.000000000000         -3.713739449144         -4.345575687350
      0.9510300000D-01  0.1000000000D+01
 Atom Ar6      Shell    88 D   1     bf  270 -   274          0.000000000000         -3.713739449144         -4.345575687350
      0.1450900000D+01  0.1000000000D+01
 Atom Ar6      Shell    89 D   1     bf  275 -   279          0.000000000000         -3.713739449144         -4.345575687350
      0.4385000000D+00  0.1000000000D+01
 Atom Ar6      Shell    90 D   1     bf  280 -   284          0.000000000000         -3.713739449144         -4.345575687350
      0.1325000000D+00  0.1000000000D+01
 Atom Ar6      Shell    91 F   1     bf  285 -   291          0.000000000000         -3.713739449144         -4.345575687350
      0.9305000000D+00  0.1000000000D+01
 Atom Ar7      Shell    92 S   3     bf  292 -   292          0.000000000000          3.713739449144         -4.345575687350
      0.1746696550D+03  0.2587000790D-02
      0.1269576800D+02  0.6231301902D-01
      0.2917834000D+01 -0.1042158318D+01
 Atom Ar7      Shell    93 S   1     bf  293 -   293          0.000000000000          3.713739449144         -4.345575687350
      0.6708400000D+00  0.1000000000D+01
 Atom Ar7      Shell    94 S   1     bf  294 -   294          0.000000000000          3.713739449144         -4.345575687350
      0.2991120000D+00  0.1000000000D+01
 Atom Ar7      Shell    95 S   1     bf  295 -   295          0.000000000000          3.713739449144         -4.345575687350
      0.1314020000D+00  0.1000000000D+01
 Atom Ar7      Shell    96 P   3     bf  296 -   298          0.000000000000          3.713739449144         -4.345575687350
      0.1988722100D+02  0.2334600819D-01
      0.3776172000D+01 -0.2246210788D+00
      0.1211516000D+01  0.1137596399D+01
 Atom Ar7      Shell    97 P   1     bf  299 -   301          0.000000000000          3.713739449144         -4.345575687350
      0.5384990000D+00  0.1000000000D+01
 Atom Ar7      Shell    98 P   1     bf  302 -   304          0.000000000000          3.713739449144         -4.345575687350
      0.2295750000D+00  0.1000000000D+01
 Atom Ar7      Shell    99 P   1     bf  305 -   307          0.000000000000          3.713739449144         -4.345575687350
      0.9510300000D-01  0.1000000000D+01
 Atom Ar7      Shell   100 D   1     bf  308 -   312          0.000000000000          3.713739449144         -4.345575687350
      0.1450900000D+01  0.1000000000D+01
 Atom Ar7      Shell   101 D   1     bf  313 -   317          0.000000000000          3.713739449144         -4.345575687350
      0.4385000000D+00  0.1000000000D+01
 Atom Ar7      Shell   102 D   1     bf  318 -   322          0.000000000000          3.713739449144         -4.345575687350
      0.1325000000D+00  0.1000000000D+01
 Atom Ar7      Shell   103 F   1     bf  323 -   329          0.000000000000          3.713739449144         -4.345575687350
      0.9305000000D+00  0.1000000000D+01
 Effective core potential in the form of general ECP input:
      1 0
 U1-ECP   5 60
 H component
  1
  2        1.0000000        0.00000000    0.00000000
 S-H projection
  1
  2       16.4140387      536.51662778    0.00000000
 P-H projection
  1
  2        9.0605561      169.54492465    0.00000000
 D-H projection
  1
  2        8.8318320      142.61559837    0.00000000
 F-H projection
  1
  2        7.0185163       60.39307602    0.00000000
 G-H projection
  1
  2       12.8040884      -60.12998958    0.00000000
      6 0
 Ar6-ECP   4 10
 G component
  1
  2        1.0000000        0.00000000    0.00000000
 S-G projection
  2
  2       10.2617210       68.66778801    0.00000000
  2        3.9527250       24.04276629    0.00000000
 P-G projection
  2
  2        5.3927140       27.73076331    0.00000000
  2        2.6999670        4.04545904    0.00000000
 D-G projection
  2
  2        8.0862350       -8.13747696    0.00000000
  2        4.0166320       -1.66452808    0.00000000
 F-G projection
  1
  2        5.2084590       -3.40009845    0.00000000
      7 0
 Ar7-ECP   4 10
 G component
  1
  2        1.0000000        0.00000000    0.00000000
 S-G projection
  2
  2       10.2617210       68.66778801    0.00000000
  2        3.9527250       24.04276629    0.00000000
 P-G projection
  2
  2        5.3927140       27.73076331    0.00000000
  2        2.6999670        4.04545904    0.00000000
 D-G projection
  2
  2        8.0862350       -8.13747696    0.00000000
  2        4.0166320       -1.66452808    0.00000000
 F-G projection
  1
  2        5.2084590       -3.40009845    0.00000000
 
 There are   148 symmetry adapted cartesian basis functions of A1  symmetry.
 There are    56 symmetry adapted cartesian basis functions of A2  symmetry.
 There are    87 symmetry adapted cartesian basis functions of B1  symmetry.
 There are   105 symmetry adapted cartesian basis functions of B2  symmetry.
 There are   117 symmetry adapted basis functions of A1  symmetry.
 There are    50 symmetry adapted basis functions of A2  symmetry.
 There are    74 symmetry adapted basis functions of B1  symmetry.
 There are    88 symmetry adapted basis functions of B2  symmetry.
   329 basis functions,   627 primitive gaussians,   396 cartesian basis functions
    49 alpha electrons       49 beta electrons
       nuclear repulsion energy       715.4848488764 Hartrees.
 IExCor= 1009 DFT=T Ex+Corr=PBE1PBE ExCW=0 ScaHFX=  0.250000
 ScaDFX=  0.750000  0.750000  1.000000  1.000000 ScalE2=  1.000000  1.000000
 IRadAn=      5 IRanWt=     -1 IRanGd=            0 ICorTp=0 IEmpDi=141
 NAtoms=    7 NActive=    7 NUniq=    4 SFac= 3.06D+00 NAtFMM=   60 NAOKFM=F Big=F
 Integral buffers will be    131072 words long.
 Regular integral format.
 Two-electron integral symmetry is turned on.
 R6Disp:  Grimme-D3(BJ) Dispersion energy=       -0.0098693721 Hartrees.
 Nuclear repulsion after empirical dispersion term =      715.4749795043 Hartrees.
 Leave Link  301 at Mon Jan 23 11:08:06 2023, MaxMem=  1048576000 cpu:               0.3 elap:               0.1
 (Enter /home/pcmt/gaussian/g16.C.01/g16/l302.exe)
 NPDir=0 NMtPBC=     1 NCelOv=     1 NCel=       1 NClECP=     1 NCelD=      1
         NCelK=      1 NCelE2=     1 NClLst=     1 CellRange=     0.0.
 One-electron integrals computed using PRISM.
 One-electron integral symmetry used in STVInt
   4 Symmetry operations used in ECPInt.
 ECPInt:  NShTT=    5356 NPrTT=   15928 LenC2=    5132 LenP2D=   11834.
 LDataN:  DoStor=T MaxTD1= 9 Len=  602
 NBasis=   329 RedAO= T EigKep=  6.55D-04  NBF=   117    50    74    88
 NBsUse=   329 1.00D-06 EigRej= -1.00D+00 NBFU=   117    50    74    88
 Precomputing XC quadrature grid using
 IXCGrd= 4 IRadAn=           5 IRanWt=          -1 IRanGd=           0 AccXCQ= 0.00D+00.
 Defaulting to unpruned grid for atomic number  92.
 Generated NRdTot=       0 NPtTot=           0 NUsed=           0 NTot=          32
 NSgBfM=   391   391   391   391   391 MxSgAt=     7 MxSgA2=     7.
 Leave Link  302 at Mon Jan 23 11:08:08 2023, MaxMem=  1048576000 cpu:               5.4 elap:               2.0
 (Enter /home/pcmt/gaussian/g16.C.01/g16/l303.exe)
 DipDrv:  MaxL=1.
 Leave Link  303 at Mon Jan 23 11:08:09 2023, MaxMem=  1048576000 cpu:               0.2 elap:               0.1
 (Enter /home/pcmt/gaussian/g16.C.01/g16/l308.exe)
 Leave Link  308 at Mon Jan 23 11:08:09 2023, MaxMem=  1048576000 cpu:               0.3 elap:               0.1
 (Enter /home/pcmt/gaussian/g16.C.01/g16/l401.exe)
 Initial guess from the checkpoint file:  "tddft-s1-uo2_cl2_2ar.pbe0-d3.optg.chk"
 B after Tr=    -0.000000   -0.000000   -0.000000
         Rot=    1.000000    0.000000   -0.000000   -0.000000 Ang=   0.00 deg.
 Guess basis will be translated and rotated to current coordinates.
 JPrj=2 DoOrth=T DoCkMO=T.
 Initial guess orbital symmetries:
       Occupied  (A1) (B2) (B1) (A1) (A1) (A1) (B2) (B2) (A1) (B1)
                 (A1) (B2) (B2) (A1) (B1) (A2) (A1) (B2) (A2) (B1)
                 (A1) (A1) (B1) (A1) (B2) (A1) (B2) (A1) (A1) (B2)
                 (B1) (A1) (B2) (A1) (B1) (A2) (B2) (A2) (B1) (A1)
                 (B2) (A1) (B1) (A1) (B2) (A1) (B2) (A2) (B1)
       Virtual   (A1) (B2) (B1) (A2) (A1) (B2) (A1) (A1) (B2) (A1)
                 (B1) (B2) (B1) (A1) (A2) (B1) (B2) (A1) (B1) (A1)
                 (A2) (B1) (A1) (A1) (B1) (B2) (B2) (A2) (B2) (A1)
                 (A1) (A2) (B2) (A1) (B1) (B1) (A1) (B2) (A2) (B2)
                 (A1) (B2) (A2) (B2) (B1) (A1) (B1) (A2) (A1) (B2)
                 (A1) (B2) (B1) (A1) (B1) (B2) (A2) (A1) (A1) (B2)
                 (A1) (B1) (B1) (A2) (B2) (A1) (B1) (A1) (A1) (A2)
                 (A1) (B2) (B1) (A1) (B2) (A2) (B2) (A1) (B2) (A2)
                 (B1) (A1) (B2) (B1) (A2) (B2) (A1) (B2) (B1) (A1)
                 (A1) (B2) (A1) (B2) (A1) (A1) (B1) (A2) (B1) (B2)
                 (A1) (B2) (B1) (A2) (A1) (B1) (A2) (B2) (A1) (A1)
                 (A2) (A2) (B1) (B2) (A1) (B1) (B2) (A1) (A1) (B1)
                 (B2) (B2) (A1) (B1) (A2) (B2) (B2) (B1) (A1) (A2)
                 (B2) (A2) (A1) (B1) (A1) (B1) (B2) (B2) (A1) (A2)
                 (A1) (B2) (B1) (A1) (B1) (A1) (B2) (A2) (A1) (B2)
                 (A2) (B2) (B1) (A1) (B1) (B1) (A2) (A1) (B2) (A2)
                 (A1) (B2) (A2) (B1) (A1) (B2) (A2) (B1) (B2) (A2)
                 (A1) (A1) (B1) (A2) (B2) (B1) (A1) (A1) (B2) (A1)
                 (B2) (A1) (B2) (B1) (A1) (A2) (A1) (B2) (B1) (A2)
                 (B1) (A1) (B2) (B2) (A1) (A1) (B1) (B1) (B1) (A2)
                 (A1) (B2) (A1) (B2) (A1) (B2) (B1) (A2) (A2) (B2)
                 (A1) (B1) (B1) (A2) (A1) (A1) (B2) (B1) (A1) (B2)
                 (A2) (B1) (A1) (B2) (B1) (A2) (A1) (A2) (A1) (B1)
                 (B2) (A1) (B2) (B1) (A1) (B2) (A1) (B1) (A2) (A1)
                 (B1) (A1) (A2) (B1) (B2) (A1) (A2) (A1) (B1) (B2)
                 (B2) (A1) (A2) (B1) (B2) (A1) (A1) (B2) (A2) (B1)
                 (A1) (A1) (B2) (A1) (B2) (B1) (B2) (A1) (A1) (A1)
                 (B1) (A1) (B2) (B1) (A1) (A1) (B2) (B1) (A1) (A1)
 The electronic state of the initial guess is 1-A1.
 Leave Link  401 at Mon Jan 23 11:08:09 2023, MaxMem=  1048576000 cpu:               1.2 elap:               0.3
 (Enter /home/pcmt/gaussian/g16.C.01/g16/l502.exe)
 Integral symmetry usage will be decided dynamically.
 Closed shell SCF:
 Using DIIS extrapolation, IDIIS=  1040.
 NGot=  1048576000 LenX=  1048254116 LenY=  1048096859
 Requested convergence on RMS density matrix=1.00D-08 within 100 cycles.
 Requested convergence on MAX density matrix=1.00D-06.
 Requested convergence on             energy=1.00D-06.
 No special actions if energy rises.
 Fock matrices will be formed incrementally for  20 cycles.

 Cycle   1  Pass 1  IDiag  1:
 FoFJK:  IHMeth= 1 ICntrl=       0 DoSepK=F KAlg= 0 I1Cent=           0 FoldK=F
 IRaf= 930000000 NMat=       1 IRICut=       1 DoRegI=T DoRafI=F ISym2E= 1 IDoP0=0 IntGTp=1.
 FoFCou: FMM=F IPFlag=           0 FMFlag=      100000 FMFlg1=           0
         NFxFlg=           0 DoJE=F BraDBF=F KetDBF=F FulRan=T
         wScrn=  0.000000 ICntrl=         0 IOpCl=  0 I1Cent=           0 NGrid=           0
         NMat0=    1 NMatS0=      1 NMatT0=    0 NMatD0=    1 NMtDS0=    0 NMtDT0=    0
 Petite list used in FoFCou.
 Defaulting to unpruned grid for atomic number  92.
 Defaulting to unpruned grid for atomic number  92.
 Defaulting to unpruned grid for atomic number  92.
 Defaulting to unpruned grid for atomic number  92.
 E= -1589.91830906293    
 DIIS: error= 4.69D-08 at cycle   1 NSaved=   1.
 NSaved= 1 IEnMin= 1 EnMin= -1589.91830906293     IErMin= 1 ErrMin= 4.69D-08
 ErrMax= 4.69D-08  0.00D+00 EMaxC= 1.00D-01 BMatC= 7.56D-13 BMatP= 7.56D-13
 IDIUse=1 WtCom= 1.00D+00 WtEn= 0.00D+00
 Coeff-Com:  0.100D+01
 Coeff:      0.100D+01
 Gap=     0.171 Goal=   None    Shift=    0.000
 RMSDP=4.96D-09 MaxDP=3.44D-07              OVMax= 7.25D-07

 SCF Done:  E(RPBE1PBE) =  -1589.91830906     A.U. after    1 cycles
            NFock=  1  Conv=0.50D-08     -V/T= 2.2880
 KE= 1.234383555116D+03 PE=-5.032132881243D+03 EE= 1.492356037560D+03
 Leave Link  502 at Mon Jan 23 11:08:16 2023, MaxMem=  1048576000 cpu:              28.7 elap:               7.4
 (Enter /home/pcmt/gaussian/g16.C.01/g16/l801.exe)
 DoSCS=F DFT=T ScalE2(SS,OS)=  1.000000  1.000000
 Range of M.O.s used for correlation:    32   329
 NBasis=   329 NAE=    49 NBE=    49 NFC=    31 NFV=     0
 NROrb=    298 NOA=    18 NOB=    18 NVA=   280 NVB=   280

 **** Warning!!: The largest alpha MO coefficient is  0.10463010D+02

 Leave Link  801 at Mon Jan 23 11:08:16 2023, MaxMem=  1048576000 cpu:               0.1 elap:               0.1
 (Enter /home/pcmt/gaussian/g16.C.01/g16/l914.exe)
 RHF ground state
 Two-electron integrals replicated using symmetry.
 MDV=  1048576000 DFT=T DoStab=F Mixed=T DoRPA=T DoScal=F NonHer=T
 Making orbital integer symmetry assigments:
 Orbital symmetries:
       Occupied  (A1) (B2) (B1) (A1) (A1) (A1) (B2) (B2) (A1) (B1)
                 (A1) (B2) (B2) (A1) (B1) (A2) (A1) (B2) (A2) (B1)
                 (A1) (A1) (B1) (A1) (B2) (A1) (B2) (A1) (A1) (B2)
                 (B1) (A1) (B2) (A1) (B1) (A2) (B2) (A2) (B1) (A1)
                 (B2) (A1) (B1) (A1) (B2) (A1) (B2) (A2) (B1)
       Virtual   (A1) (B2) (B1) (A2) (A1) (B2) (A1) (A1) (B2) (A1)
                 (B1) (B2) (B1) (A1) (A2) (B1) (B2) (A1) (B1) (A1)
                 (A2) (B1) (A1) (A1) (B1) (B2) (B2) (A2) (B2) (A1)
                 (A1) (A2) (B2) (A1) (B1) (B1) (A1) (B2) (A2) (B2)
                 (A1) (B2) (A2) (B2) (B1) (A1) (B1) (A2) (A1) (B2)
                 (A1) (B2) (B1) (A1) (B1) (B2) (A2) (A1) (A1) (B2)
                 (A1) (B1) (B1) (A2) (B2) (A1) (B1) (A1) (A1) (A2)
                 (A1) (B2) (B1) (A1) (B2) (A2) (B2) (A1) (B2) (A2)
                 (B1) (A1) (B2) (B1) (A2) (B2) (A1) (B2) (B1) (A1)
                 (A1) (B2) (A1) (B2) (A1) (A1) (B1) (A2) (B1) (B2)
                 (A1) (B2) (B1) (A2) (A1) (B1) (A2) (B2) (A1) (A1)
                 (A2) (A2) (B1) (B2) (A1) (B1) (B2) (A1) (A1) (B1)
                 (B2) (B2) (A1) (B1) (A2) (B2) (B2) (B1) (A1) (A2)
                 (B2) (A2) (A1) (B1) (A1) (B1) (B2) (B2) (A1) (A2)
                 (A1) (B2) (B1) (A1) (B1) (A1) (B2) (A2) (A1) (B2)
                 (A2) (B2) (B1) (A1) (B1) (B1) (A2) (A1) (B2) (A2)
                 (A1) (B2) (A2) (B1) (A1) (B2) (A2) (B1) (B2) (A2)
                 (A1) (A1) (B1) (A2) (B2) (B1) (A1) (A1) (B2) (A1)
                 (B2) (A1) (B2) (B1) (A1) (A2) (A1) (B2) (B1) (A2)
                 (B1) (A1) (B2) (B2) (A1) (A1) (B1) (B1) (B1) (A2)
                 (A1) (B2) (A1) (B2) (A1) (B2) (B1) (A2) (A2) (B2)
                 (A1) (B1) (B1) (A2) (A1) (A1) (B2) (B1) (A1) (B2)
                 (A2) (B1) (A1) (B2) (B1) (A2) (A1) (A2) (A1) (B1)
                 (B2) (A1) (B2) (B1) (A1) (B2) (A1) (B1) (A2) (A1)
                 (B1) (A1) (A2) (B1) (B2) (A1) (A2) (A1) (B1) (B2)
                 (B2) (A1) (A2) (B1) (B2) (A1) (A1) (B2) (A2) (B1)
                 (A1) (A1) (B2) (A1) (B2) (B1) (B2) (A1) (A1) (A1)
                 (B1) (A1) (B2) (B1) (A1) (A1) (B2) (B1) (A1) (A1)
    16 initial guesses have been made.
 Convergence on wavefunction:    0.000001000000000
 Davidson Disk Diagonalization:  ConvIn= 1.00D-06 SkipCon=T Conv= 1.00D-06.
 Max sub-space:  2000 roots to seek:    16 dimension of matrix:        10080
 Iteration     1 Dimension    16 NMult     0 NNew     16
 CISAX will form    16 AO SS matrices at one time.
 NMat=    16 NSing=     0 JSym2X=-1.
 FoFJK:  IHMeth= 1 ICntrl=       0 DoSepK=F KAlg= 0 I1Cent=           0 FoldK=F
 IRaf= 930000000 NMat=      32 IRICut=      40 DoRegI=T DoRafI=T ISym2E=-1 IDoP0=3 IntGTp=3.
 FoFCou: FMM=F IPFlag=           0 FMFlag=      100000 FMFlg1=           0
         NFxFlg=           0 DoJE=F BraDBF=F KetDBF=F FulRan=T
         wScrn=  0.000000 ICntrl=         0 IOpCl=  0 I1Cent=           0 NGrid=           0
         NMat0=   32 NMatS0=      0 NMatT0=   16 NMatD0=   32 NMtDS0=    0 NMtDT0=    0
 Petite list used in FoFCou.
 Raff kept on since  91.32% of shell-pairs survive, threshold=   0.20 IRatSp=91.
 Defaulting to unpruned grid for atomic number  92.
 Defaulting to unpruned grid for atomic number  92.
 Defaulting to unpruned grid for atomic number  92.
 Defaulting to unpruned grid for atomic number  92.
 Excitation Energies [eV] at current iteration:
 Root      1 :     2.935614974178574
 Root      2 :     2.950652320740976
 Root      3 :     2.987302107522606
 Root      4 :     2.990013977380819
 Root      5 :     3.473030515587324
 Root      6 :     3.479936983107000
 Root      7 :     3.483114436857712
 Root      8 :     3.529279830814568
 Root      9 :     3.549024583477367
 Root     10 :     3.570655682681044
 Root     11 :     3.675697995195361
 Root     12 :     3.686094087370707
 Root     13 :     3.804462975616299
 Root     14 :     3.811789495997714
 Root     15 :     3.928518856814205
 Root     16 :     3.960149969270654
 Iteration     2 Dimension    24 NMult    16 NNew      8
 CISAX will form     8 AO SS matrices at one time.
 NMat=     8 NSing=     0 JSym2X=-1.
 New state      1 was old state      3
 Root      1 not converged, maximum delta is    0.465322230885026
 New state      2 was old state      4
 Root      2 not converged, maximum delta is    0.419919814081233
 New state      3 was old state      1
 Root      3 not converged, maximum delta is    0.369466389574571
 New state      4 was old state      2
 Root      4 not converged, maximum delta is    0.349934793938137
 Excitation Energies [eV] at current iteration:
 Root      1 :     2.372693711927381   Change is   -0.614608395595224
 Root      2 :     2.463439126101456   Change is   -0.526574851279363
 Root      3 :     2.498842740275049   Change is   -0.436772233903524
 Root      4 :     2.532290922042510   Change is   -0.418361398698466
 Iteration     3 Dimension    32 NMult    24 NNew      8
 CISAX will form     8 AO SS matrices at one time.
 NMat=     8 NSing=     0 JSym2X=-1.
 Root      1 not converged, maximum delta is    0.021035210147364
 Root      2 not converged, maximum delta is    0.027431427035791
 Root      3 not converged, maximum delta is    0.030824990900375
 Root      4 not converged, maximum delta is    0.042207210976337
 Excitation Energies [eV] at current iteration:
 Root      1 :     2.354921716155862   Change is   -0.017771995771519
 Root      2 :     2.436135848175665   Change is   -0.027303277925791
 Root      3 :     2.471975656769288   Change is   -0.026867083505761
 Root      4 :     2.499047844331711   Change is   -0.033243077710799
 Iteration     4 Dimension    40 NMult    32 NNew      8
 CISAX will form     8 AO SS matrices at one time.
 NMat=     8 NSing=     0 JSym2X=-1.
 Root      1 not converged, maximum delta is    0.004426866857477
 Root      2 not converged, maximum delta is    0.004687536332990
 Root      3 not converged, maximum delta is    0.001874464624780
 Root      4 not converged, maximum delta is    0.003112320027313
 Excitation Energies [eV] at current iteration:
 Root      1 :     2.354461713551717   Change is   -0.000460002604145
 Root      2 :     2.435493617859289   Change is   -0.000642230316376
 Root      3 :     2.471411915762527   Change is   -0.000563741006761
 Root      4 :     2.498171431465031   Change is   -0.000876412866680
 Iteration     5 Dimension    48 NMult    40 NNew      8
 CISAX will form     8 AO SS matrices at one time.
 NMat=     8 NSing=     0 JSym2X=-1.
 Root      1 not converged, maximum delta is    0.000436616541718
 Root      2 not converged, maximum delta is    0.000523909676061
 Root      3 not converged, maximum delta is    0.001061458029795
 Root      4 not converged, maximum delta is    0.001038671502656
 Excitation Energies [eV] at current iteration:
 Root      1 :     2.354449083768566   Change is   -0.000012629783151
 Root      2 :     2.435471170272299   Change is   -0.000022447586991
 Root      3 :     2.471392400091851   Change is   -0.000019515670676
 Root      4 :     2.498152340563547   Change is   -0.000019090901485
 Iteration     6 Dimension    56 NMult    48 NNew      8
 CISAX will form     8 AO SS matrices at one time.
 NMat=     8 NSing=     0 JSym2X=-1.
 Root      1 not converged, maximum delta is    0.000288636933365
 Root      2 not converged, maximum delta is    0.000421811130915
 Root      3 not converged, maximum delta is    0.000500167146524
 Root      4 not converged, maximum delta is    0.000311685860410
 Excitation Energies [eV] at current iteration:
 Root      1 :     2.354448344330054   Change is   -0.000000739438512
 Root      2 :     2.435469758398052   Change is   -0.000001411874247
 Root      3 :     2.471389619159975   Change is   -0.000002780931877
 Root      4 :     2.498150711873937   Change is   -0.000001628689609
 Iteration     7 Dimension    64 NMult    56 NNew      8
 CISAX will form     8 AO SS matrices at one time.
 NMat=     8 NSing=     0 JSym2X=-1.
 Root      1 not converged, maximum delta is    0.000055527854014
 Root      2 not converged, maximum delta is    0.000041135095753
 Root      3 not converged, maximum delta is    0.000061360981449
 Root      4 not converged, maximum delta is    0.000097705329091
 Excitation Energies [eV] at current iteration:
 Root      1 :     2.354448305356866   Change is   -0.000000038973188
 Root      2 :     2.435469702532262   Change is   -0.000000055865790
 Root      3 :     2.471389430831950   Change is   -0.000000188328025
 Root      4 :     2.498150571043612   Change is   -0.000000140830325
 Iteration     8 Dimension    72 NMult    64 NNew      8
 CISAX will form     8 AO SS matrices at one time.
 NMat=     8 NSing=     0 JSym2X=-1.
 Root      1 not converged, maximum delta is    0.000007102777402
 Root      2 not converged, maximum delta is    0.000004805507502
 Root      3 not converged, maximum delta is    0.000008771048904
 Root      4 not converged, maximum delta is    0.000015344184322
 Excitation Energies [eV] at current iteration:
 Root      1 :     2.354448304014317   Change is   -0.000000001342549
 Root      2 :     2.435469700451074   Change is   -0.000000002081188
 Root      3 :     2.471389424530777   Change is   -0.000000006301173
 Root      4 :     2.498150562473189   Change is   -0.000000008570424
 Iteration     9 Dimension    80 NMult    72 NNew      8
 CISAX will form     8 AO SS matrices at one time.
 NMat=     8 NSing=     0 JSym2X=-1.
 Root      1 has converged.
 Root      2 not converged, maximum delta is    0.000001760919138
 Root      3 not converged, maximum delta is    0.000001683956628
 Root      4 not converged, maximum delta is    0.000005804935714
 Excitation Energies [eV] at current iteration:
 Root      1 :     2.354448303971336   Change is   -0.000000000042981
 Root      2 :     2.435469700386064   Change is   -0.000000000065010
 Root      3 :     2.471389424357107   Change is   -0.000000000173670
 Root      4 :     2.498150561984383   Change is   -0.000000000488805
 Iteration    10 Dimension    86 NMult    80 NNew      6
 CISAX will form     6 AO SS matrices at one time.
 NMat=     6 NSing=     0 JSym2X=-1.
 Root      1 has converged.
 Root      2 has converged.
 Root      3 has converged.
 Root      4 has converged.
 Excitation Energies [eV] at current iteration:
 Root      1 :     2.354448303971615   Change is    0.000000000000279
 Root      2 :     2.435469700383769   Change is   -0.000000000002295
 Root      3 :     2.471389424351053   Change is   -0.000000000006054
 Root      4 :     2.498150561969048   Change is   -0.000000000015335
 Convergence achieved on expansion vectors.
 ***********************************************************************
 Excited states from <AA,BB:AA,BB> singles matrix:
 ***********************************************************************
 
 1PDM for each excited state written to RWF  633
 Ground to excited state transition densities written to RWF  633
 Ground to excited state transition electric dipole moments (Au):
       state          X           Y           Z        Dip. S.      Osc.
         1        -0.0000     -0.0000     -0.0000      0.0000      0.0000
         2        -0.0000     -0.0000     -0.0000      0.0000      0.0000
         3        -0.0000     -0.0000     -0.0000      0.0000      0.0000
         4        -0.0000     -0.0000     -0.0000      0.0000      0.0000
 Ground to excited state transition velocity dipole moments (Au):
       state          X           Y           Z        Dip. S.      Osc.
         1         0.0000      0.0000      0.0000      0.0000      0.0000
         2         0.0000      0.0000      0.0000      0.0000      0.0000
         3         0.0000      0.0000      0.0000      0.0000      0.0000
         4         0.0000      0.0000      0.0000      0.0000      0.0000
 Ground to excited state transition magnetic dipole moments (Au):
       state          X           Y           Z
         1         0.0000      0.0000      0.0000
         2         0.0000      0.0000      0.0000
         3         0.0000      0.0000      0.0000
         4         0.0000      0.0000      0.0000
 Ground to excited state transition velocity quadrupole moments (Au):
       state          XX          YY          ZZ          XY          XZ          YZ
         1         0.0000      0.0000      0.0000      0.0000      0.0000      0.0000
         2         0.0000      0.0000      0.0000      0.0000      0.0000      0.0000
         3         0.0000      0.0000      0.0000      0.0000      0.0000      0.0000
         4         0.0000      0.0000      0.0000      0.0000      0.0000      0.0000
 <0|del|b> * <b|rxdel|0> + <0|del|b> * <b|delr+rdel|0>
 Rotatory Strengths (R) in cgs (10**-40 erg-esu-cm/Gauss)
       state          XX          YY          ZZ    R(velocity)    E-M Angle
         1         0.0000      0.0000      0.0000      0.0000       90.00
         2         0.0000      0.0000      0.0000      0.0000       90.00
         3         0.0000      0.0000      0.0000      0.0000       90.00
         4         0.0000      0.0000      0.0000      0.0000       90.00
 1/2[<0|r|b>*<b|rxdel|0> + (<0|rxdel|b>*<b|r|0>)*]
 Rotatory Strengths (R) in cgs (10**-40 erg-esu-cm/Gauss)
       state          XX          YY          ZZ     R(length)
         1         0.0000      0.0000      0.0000      0.0000
         2         0.0000      0.0000      0.0000      0.0000
         3         0.0000      0.0000      0.0000      0.0000
         4         0.0000      0.0000      0.0000      0.0000
  1/2[<0|del|b>*<b|r|0> + (<0|r|b>*<b|del|0>)*] (Au)
       state          X           Y           Z        Dip. S.   Osc.(frdel)
         1        -0.0000     -0.0000     -0.0000      0.0000      0.0000
         2        -0.0000     -0.0000     -0.0000      0.0000      0.0000
         3        -0.0000     -0.0000     -0.0000      0.0000      0.0000
         4        -0.0000     -0.0000     -0.0000      0.0000      0.0000

 Excitation energies and oscillator strengths:
 
 Excited State   1:      Triplet-A1     2.3544 eV  526.60 nm  f=0.0000  <S**2>=2.000
      43 -> 52         0.42053
      49 -> 52         0.57058
 This state for optimization and/or second-order correction.
 Total Energy, E(TD-HF/TD-DFT) =  -1589.83178468    
 Copying the excited state density for this state as the 1-particle RhoCI density.
 
 Excited State   2:      Triplet-B2     2.4355 eV  509.08 nm  f=0.0000  <S**2>=2.000
      43 -> 53         0.39423
      49 -> 53         0.58830
 
 Excited State   3:      Triplet-B1     2.4714 eV  501.68 nm  f=0.0000  <S**2>=2.000
      43 -> 50         0.36824
      49 -> 50         0.60146
 
 Excited State   4:      Triplet-A2     2.4982 eV  496.30 nm  f=0.0000  <S**2>=2.000
      43 -> 51         0.36157
      49 -> 51         0.60578
 SavETr:  write IOETrn=   770 NScale= 10 NData=  16 NLR=1 NState=    4 LETran=      82.
 The selected state is a triplet.
 CISGrd: IGrad=2 NXY=2 DFT=T
 CISAX will form     1 AO SS matrices at one time.
 NMat=     1 NSing=     0 JSym2X=-1.
 Leave Link  914 at Mon Jan 23 11:33:35 2023, MaxMem=  1048576000 cpu:            6026.8 elap:            1518.5
 (Enter /home/pcmt/gaussian/g16.C.01/g16/l1002.exe)
 Minotr:  Closed shell wavefunction.
          Computing CIS/TDA/TD derivatives.
          Using Z-Vector for PSCF gradient.
          Skipping F1 and S1 gradient terms here.
          IDoAtm=1111111
          Frozen-core window.
          Direct CPHF calculation.
          Differentiating once with respect to electric field.
                with respect to dipole field.
[...]
  31         (B1)--O          -0.759340          3.301548
  32         (A1)--O          -0.509837          1.084854
  33         (B2)--O          -0.504453          1.091980
  34         (A1)--O          -0.497844          1.077097
  35         (B1)--O          -0.496064          1.103053
  36         (A2)--O          -0.494337          1.103626
  37         (B2)--O          -0.491837          1.112505
  38         (B1)--O          -0.446145          2.087079
  39         (A2)--O          -0.445573          2.031670
  40         (A1)--O          -0.436296          2.599812
  41         (B2)--O          -0.423273          2.780456
  42         (A1)--O          -0.420591          2.839241
  43         (B1)--O          -0.390572          3.777539
  44         (A1)--O          -0.361678          2.420884
  45         (B2)--O          -0.352114          2.441791
  46         (A1)--O          -0.339809          2.201313
  47         (B2)--O          -0.328746          2.389616
  48         (A2)--O          -0.326657          2.444293
  49         (B1)--O          -0.311613          2.726320
  50         (A1)--V          -0.145753          5.583113
  51         (B2)--V          -0.144199          5.806003
  52         (B1)--V          -0.140412          5.815876
  53         (A2)--V          -0.138740          5.786989
  54         (A1)--V          -0.090953          4.507875
  55         (B2)--V          -0.086875          5.263246
  56         (A1)--V          -0.041006          2.401964
  57         (A1)--V          -0.010309          0.989365
  58         (B2)--V           0.008148          1.992898
  59         (B1)--V           0.029172          4.255818
  60         (A1)--V           0.038263          0.518137
  61         (B1)--V           0.044127          0.706739
  62         (B2)--V           0.045913          0.747074
  63         (A1)--V           0.054460          1.316893
  64         (A2)--V           0.089755          2.123300
  65         (B1)--V           0.107736          2.443798
  66         (B2)--V           0.124316          0.537556
  67         (A1)--V           0.131463          0.540961
  68         (B1)--V           0.139907          0.712457
  69         (A1)--V           0.142754          0.622192
  70         (A2)--V           0.163995          0.538382
  71         (B1)--V           0.164292          0.869306
  72         (A1)--V           0.165958          0.737071
  73         (A1)--V           0.176019          0.808734
  74         (B1)--V           0.184542          0.682439
  75         (B2)--V           0.187272          0.608144
  76         (B2)--V           0.193477          0.681486
  77         (A2)--V           0.199156          0.992311
  78         (B2)--V           0.210239          0.945865
  79         (A1)--V           0.223998          0.871314
  80         (A1)--V           0.231176          0.964500
  81         (A2)--V           0.237294          0.861496
  82         (B2)--V           0.266061          1.420078
  83         (A1)--V           0.278193          1.237690
  84         (B1)--V           0.301113          1.806421
  85         (B1)--V           0.303654          1.325793
  86         (B2)--V           0.324297          1.276011
  87         (A1)--V           0.324533          1.481101
  88         (A2)--V           0.332007          1.403118
  89         (B2)--V           0.344447          1.531658
  90         (A1)--V           0.359313          1.485670
  91         (B2)--V           0.364870          1.341023
  92         (A2)--V           0.371688          1.542837
  93         (B2)--V           0.378924          1.361218
  94         (B1)--V           0.392959          1.580212
  95         (A1)--V           0.398717          1.498306
  96         (B1)--V           0.405028          1.506776
  97         (A1)--V           0.418353          1.560197
  98         (A2)--V           0.419983          1.610388
  99         (B2)--V           0.457633          1.705698
 100         (A1)--V           0.462129          1.659990
 101         (B2)--V           0.467671          1.932187
 102         (B1)--V           0.504962          1.590210
 103         (A1)--V           0.529101          1.480182
 104         (A2)--V           0.537604          1.803915
 105         (B2)--V           0.539569          1.745173
 106         (B1)--V           0.540787          1.726235
 107         (A1)--V           0.561304          1.883586
 108         (A1)--V           0.588090          1.931060
 109         (B2)--V           0.602766          1.542875
 110         (B1)--V           0.622291          1.872204
 111         (A1)--V           0.623576          1.625570
 112         (A2)--V           0.661992          1.810409
 113         (B1)--V           0.667794          1.667475
 114         (A1)--V           0.673533          1.671874
 115         (B2)--V           0.675805          1.976260
 116         (A1)--V           0.688337          2.673059
 117         (B1)--V           0.690413          2.063380
 118         (A1)--V           0.719814          2.067731
 119         (A2)--V           0.723698          1.992654
 120         (B2)--V           0.735224          1.830451
 121         (B2)--V           0.738950          1.935037
 122         (A1)--V           0.740752          2.018551
 123         (A2)--V           0.750261          1.964777
 124         (B1)--V           0.753634          1.733065
 125         (B2)--V           0.754105          1.999080
 126         (A1)--V           0.754283          2.118024
 127         (A1)--V           0.777347          2.281576
 128         (B2)--V           0.800511          2.274163
 129         (A2)--V           0.809010          1.810145
 130         (B1)--V           0.817420          1.808330
 131         (A1)--V           0.845148          2.050656
 132         (B2)--V           0.850855          2.124123
 133         (A2)--V           0.958356          1.739453
 134         (B1)--V           0.958423          1.843302
 135         (B2)--V           0.986339          2.832061
 136         (A1)--V           0.989761          1.962282
 137         (B2)--V           1.011086          2.063295
 138         (B1)--V           1.042666          2.144410
 139         (A1)--V           1.062776          2.995036
 140         (A1)--V           1.101003          3.461076
 141         (B2)--V           1.142961          3.454602
 142         (A1)--V           1.167929          3.680426
 143         (B2)--V           1.393596          3.768547
 144         (A1)--V           1.433383          3.522019
 145         (A1)--V           1.433839          3.460929
 146         (A2)--V           1.441061          4.056777
 147         (B1)--V           1.446704          4.146779
 148         (B1)--V           1.456157          4.033536
 149         (B2)--V           1.466369          4.273329
 150         (A1)--V           1.515592          4.194261
 151         (B2)--V           1.531724          3.292721
 152         (B1)--V           1.536421          2.948997
 153         (A2)--V           1.593017          3.231111
 154         (A1)--V           1.614278          3.613558
 155         (B1)--V           1.624160          3.263522
 156         (A2)--V           1.637615          3.329446
 157         (B2)--V           1.655022          3.737352
 158         (A1)--V           1.744258          3.738066
 159         (A1)--V           1.779651          3.144372
 160         (A2)--V           1.785817          4.673782
 161         (A2)--V           1.818537          4.959446
 162         (B1)--V           1.821763          4.678131
 163         (B2)--V           1.822244          4.369831
 164         (A1)--V           1.834679          4.674946
 165         (B2)--V           1.844297          3.284460
 166         (B1)--V           1.847340          4.795342
 167         (A1)--V           1.866128          4.589405
 168         (B2)--V           1.910646          4.711202
 169         (A1)--V           1.924739          4.475458
 170         (B1)--V           1.927460          4.372824
 171         (B2)--V           1.932536          4.519792
 172         (A1)--V           1.969149          4.490682
 173         (B1)--V           1.975983          4.577211
 174         (A2)--V           2.003047          4.172054
 175         (B2)--V           2.030327          5.151231
 176         (B2)--V           2.080817          3.747620
 177         (A1)--V           2.092373          3.887708
 178         (B1)--V           2.101518          3.657580
 179         (A2)--V           2.102646          3.202183
 180         (B2)--V           2.112310          3.251333
 181         (A1)--V           2.114318          3.384406
 182         (A2)--V           2.114696          3.226269
 183         (B1)--V           2.145090          3.384026
 184         (A1)--V           2.164539          3.665371
 185         (B2)--V           2.182820          4.468340
 186         (B1)--V           2.197028          4.444378
 187         (B2)--V           2.197824          3.628843
 188         (A1)--V           2.228822          5.310158
 189         (A2)--V           2.273298          6.600733
 190         (A1)--V           2.292755          4.674858
 191         (B2)--V           2.294852          6.838875
 192         (A1)--V           2.296786          6.708974
 193         (B1)--V           2.297176          5.034510
 194         (B1)--V           2.335380          6.396374
 195         (A1)--V           2.371209          5.130614
 196         (B2)--V           2.375191          5.227710
 197         (A2)--V           2.401657          5.056281
 198         (A1)--V           2.451500          5.850713
 199         (B2)--V           2.470132          5.997257
 200         (A2)--V           2.487297          6.107587
 201         (B1)--V           2.521076          6.116246
 202         (A1)--V           2.522348          6.172469
 203         (B2)--V           2.526570          6.131657
 204         (B1)--V           2.548495          6.290545
 205         (B1)--V           2.565698          5.616809
 206         (A2)--V           2.568495          6.026176
 207         (A1)--V           2.585976          5.555136
 208         (A2)--V           2.594144          5.469764
 209         (B2)--V           2.595104          5.173166
 210         (A1)--V           2.607966          5.152821
 211         (B2)--V           2.610025          5.034892
 212         (A2)--V           2.615335          4.736478
 213         (B1)--V           2.620433          4.328563
 214         (A1)--V           2.623556          4.256033
 215         (B2)--V           2.623856          4.196877
 216         (A2)--V           2.624662          4.239942
 217         (B1)--V           2.627359          4.218672
 218         (A1)--V           2.633737          6.588759
 219         (B2)--V           2.639362          4.424363
 220         (A2)--V           2.644028          5.300154
 221         (A1)--V           2.644545          4.768448
 222         (B1)--V           2.653627          5.657682
 223         (A2)--V           2.661888          4.359486
 224         (A1)--V           2.666099          5.343919
 225         (B1)--V           2.667349          4.391886
 226         (A1)--V           2.672568          4.616192
 227         (B2)--V           2.672786          4.986298
 228         (B2)--V           2.689263          5.158809
 229         (A1)--V           2.736250          4.760200
 230         (B2)--V           2.781826          5.317033
 231         (B2)--V           2.842135          6.618491
 232         (A1)--V           2.850811          6.974054
 233         (B1)--V           2.942351          7.152850
 234         (A2)--V           2.984898          7.116954
 235         (A1)--V           2.998628          7.084741
 236         (A1)--V           3.088446          7.767289
 237         (B2)--V           3.124783          7.112313
 238         (B1)--V           3.259258          7.878128
 239         (A2)--V           3.654061          5.164915
 240         (B1)--V           3.661564          5.174679
 241         (A1)--V           3.673707          5.188456
 242         (B2)--V           3.700439          5.208383
 243         (B2)--V           3.779061          5.310467
 244         (A1)--V           3.821406          5.353670
 245         (A1)--V           3.987881          9.097791
 246         (B1)--V           4.296043          8.815309
 247         (B1)--V           4.602657          9.868352
 248         (B1)--V           4.664748         11.824261
 249         (A2)--V           4.697332         11.686944
 250         (A1)--V           4.801418         11.999215
 251         (B2)--V           4.815833         12.581102
 252         (A1)--V           4.974600         12.120221
 253         (B2)--V           4.990427         12.069905
 254         (A1)--V           5.055693          7.142526
 255         (B2)--V           5.065147          7.292641
 256         (A2)--V           5.071447          7.623055
 257         (B1)--V           5.073630          6.443431
 258         (A2)--V           5.076993          7.089242
 259         (B2)--V           5.096177          6.477695
 260         (A1)--V           5.097184          6.591992
 261         (B1)--V           5.149538          7.625916
 262         (B1)--V           5.175381          7.293974
 263         (A2)--V           5.189783          7.494051
 264         (A1)--V           5.190906          9.948285
 265         (A1)--V           5.318824          7.200073
 266         (B2)--V           5.347665          7.290186
 267         (B1)--V           5.348293         11.174624
 268         (A1)--V           6.126108         11.973623
 269         (B2)--V           6.158896         12.556095
 270         (A1)--V           6.167200         14.962340
 271         (A2)--V           6.167414         16.063249
 272         (B1)--V           6.175419         15.864468
 273         (B2)--V           6.187709         16.157834
 274         (A2)--V           6.258407         11.701967
 275         (B1)--V           6.276130          9.976316
 276         (A1)--V           6.280069         13.386425
 277         (A2)--V           6.335849          9.677033
 278         (A1)--V           6.353610         13.493020
 279         (B1)--V           6.365412         10.943831
 280         (B2)--V           6.377742         14.068039
 281         (A1)--V           6.385244         12.633675
 282         (B2)--V           6.409233         11.630962
 283         (B1)--V           6.523577         11.425764
 284         (A1)--V           6.650428         11.065947
 285         (B2)--V           6.681102         10.442497
 286         (A1)--V           6.811497         11.408296
 287         (B1)--V           7.007887         14.397559
 288         (A2)--V           7.017364         13.837730
 289         (A1)--V           7.210810         15.632889
 290         (B1)--V           7.412735         12.504478
 291         (A1)--V           8.151034         16.237759
 292         (A2)--V           8.160848         16.160676
 293         (B1)--V           8.268191         16.035180
 294         (B2)--V           8.394922         16.499138
 295         (A1)--V           9.395770         16.935188
 296         (A2)--V          10.781831         33.587307
 297         (A1)--V          10.792003         33.609881
 298         (B2)--V          10.800984         33.616467
 299         (B1)--V          10.801925         33.608782
 300         (A1)--V          11.010837         33.602019
 301         (B2)--V          11.039431         33.595991
 302         (A2)--V          13.376103         34.650827
 303         (B1)--V          13.382411         34.649424
 304         (B2)--V          13.390107         34.637094
 305         (A1)--V          13.411525         34.632979
 306         (A1)--V          13.453332         34.630454
 307         (B2)--V          13.469175         34.630910
 308         (A2)--V          13.707096         34.573389
 309         (B1)--V          13.814046         34.606448
 310         (A1)--V          14.143937         34.599426
 311         (A1)--V          18.158657          7.125933
 312         (B2)--V          18.215024          7.154051
 313         (B2)--V          21.571111         43.724627
 314         (A1)--V          21.573916         43.726839
 315         (B1)--V          21.700926         43.916209
 316         (B2)--V          25.213889         44.504833
 317         (A1)--V          25.272476         44.565529
 318         (A1)--V          32.176402        437.411504
 319         (A1)--V          43.729452        108.727327
 320         (B1)--V          44.020651        109.036282
 321         (B2)--V          47.988524         93.042215
 322         (A1)--V          47.991864         93.045940
 323         (B1)--V          48.100695         93.094374
 324         (A1)--V          59.219899         43.874179
 325         (B2)--V         122.267919        236.678221
 326         (A1)--V         122.274393        236.685695
 327         (B1)--V         122.412370        236.813933
 328         (A1)--V         229.205181        139.235919
 329         (A1)--V         673.732646       1054.474096
 Total kinetic energy from orbitals= 1.234166037665D+03
 No NMR shielding tensors so no spin-rotation constants.
 Leave Link  601 at Mon Jan 23 16:48:20 2023, MaxMem=  1048576000 cpu:               1.9 elap:               0.5
 (Enter /home/pcmt/gaussian/g16.C.01/g16/l9999.exe)
 Electronic transition elements 
                 1             2             3             4 
      1  -0.158983D+04 -0.158983D+04 -0.158983D+04 -0.158983D+04
      2   0.000000D+00  0.000000D+00  0.000000D+00  0.000000D+00
      3   0.000000D+00  0.000000D+00  0.000000D+00  0.000000D+00
      4   0.000000D+00  0.000000D+00  0.000000D+00  0.000000D+00
      5   0.000000D+00  0.000000D+00  0.000000D+00  0.000000D+00
      6   0.000000D+00  0.000000D+00  0.000000D+00  0.000000D+00
      7   0.000000D+00  0.000000D+00  0.000000D+00  0.000000D+00
      8   0.000000D+00  0.000000D+00  0.000000D+00  0.000000D+00
      9   0.000000D+00  0.000000D+00  0.000000D+00  0.000000D+00
     10   0.000000D+00  0.000000D+00  0.000000D+00  0.000000D+00
     11   0.000000D+00  0.000000D+00  0.000000D+00  0.000000D+00
     12   0.000000D+00  0.000000D+00  0.000000D+00  0.000000D+00
     13   0.000000D+00  0.000000D+00  0.000000D+00  0.000000D+00
     14   0.000000D+00  0.000000D+00  0.000000D+00  0.000000D+00
     15   0.000000D+00  0.000000D+00  0.000000D+00  0.000000D+00
     16   0.000000D+00  0.000000D+00  0.000000D+00  0.000000D+00

 Test job not archived.
 1\1\GINC-U-5-3\FOpt\RPBE1PBE TD-FC\Gen\Ar2Cl2O2U1\VALLET\23-Jan-2023\0
 \\#p PBE1PBE/GEN GFInput GFPrint 5D 7F Pseudo=Read IOP(2/9=2, 4/69=2, 
 6/7=3, 8/10=91, 8/37=32, 8/38=0) EmpiricalDispersion=GD3BJ Symm=(Loose
 ) Int=(UltraFine) Guess=(Read) Geom=CheckPoint Scf=(NoVarAcc,MaxCycle=
 100,conver=8) td=(triplets,nstates=4,root=1) Opt=Tight\\[UO2Cl2Ar2]2- 
 - PBE0+D3BJ - GS\\0,1\U,0.,-0.4010183661,0.\O,-1.7456320493,-0.1812348
 03,0.\O,1.7456320493,-0.181234803,0.\Cl,0.,-1.9100540027,2.0215406782\
 Cl,0.,-1.9100540027,-2.0215406782\Ar,0.,2.1880403695,-1.9964404341\Ar,
 0.,2.1880403695,1.9964404341\\Version=ES64L-G16RevC.01\State=1-A1\HF=-
 1589.9169494\RMSD=4.756e-09\RMSF=7.284e-08\Dipole=0.,2.2550907,0.\PG=C
 02V [C2(U1),SGV(Ar2Cl2),SGV'(O2)]\\@


 THERE IS NO SUBJECT, HOWEVER COMPLEX,
 WHICH, IF STUDIED WITH PATIENCE AND INTELLIGIENCE
 WILL NOT BECOME
 MORE COMPLEX
                        QUOTED BY D. GORDON ROHMAN
 Job cpu time:       0 days 22 hours 12 minutes  0.9 seconds.
 Elapsed time:       0 days  5 hours 40 minutes 12.1 seconds.
 File lengths (MBytes):  RWF=    308 Int=      0 D2E=      0 Chk=     22 Scr=      1
 Normal termination of Gaussian 16 at Mon Jan 23 16:48:20 2023.
