

 Parallel Execution: Process Information
 ==============================================================================
 Rank   Node Name                              NodeID   MyNodeRank  NodeMaster
    0   u-0-5.local                               0          0          0
    1   u-0-5.local                               0          1         -1
    2   u-0-5.local                               1          0          1
    3   u-0-5.local                               1          1         -1
    4   u-0-5.local                               2          0          2
    5   u-0-5.local                               2          1         -1
    6   u-0-5.local                               3          0          3
    7   u-0-5.local                               3          1         -1
 ==============================================================================


May use up to 31228MB of RAM as shared memory on node 0
May use up to 31250MB of RAM as shared memory on node 1
May use up to 31250MB of RAM as shared memory on node 2
May use up to 31250MB of RAM as shared memory on node 3

 *******************************************************************************
 *                                                                             *
 *  --------------------------------                                           *
 *   Amsterdam Modeling Suite (AMS)              2021.106                      *
 *  --------------------------------                                           *
 *                                               r99350 2021-12-03             *
 *                                                                             *
 *                                                                             *
 *                              =================                              *
 *                              |               |                              *
 *                              |     A M S     |                              *
 *                              |               |                              *
 *                              =================                              *
 *                                                                             *
 *                                                                             *
 *   Online information and documentation:  https://www.scm.com/support/       *
 *   E-mail:  support@scm.com   info@scm.com                                   *
 *                                                                             *
 *   Scientific publications using AMS results must be properly referenced     *
 *   See the User Manuals (or the web site) for recommended citations          *
 *   The terms and conditions of the End User License Agreement apply to       *
 *   the use of AMS, https://www.scm.com/license-terms/                        *
 *                                                                             *
 **********************  x86_64_linux_intel / intelmpi  ************************
 
 Licensed to: Dr. Val?rie Vallet / Laboratoire PhLAM UMR 8523 / Villeneuve d'Ascq Cedex / FRANCE 2023-02-21 11:49:39
 SCM User ID: u10325
  
 AMS 2021.106  RunTime: Mar02-2023 13:47:29  ShM Nodes: 4  Procs: 8

 AMS jobname: uo2cl42-.tddft-TDA-camb3lyp.SO
 AMS jobid  : 1049524744

 Start   directory: /home/vallet/Bent-Uranyl/uo2_4cl/geom-Schnaars/
 Results directory: /home/vallet/Bent-Uranyl/uo2_4cl/geom-Schnaars/uo2cl42-.tddft-TDA-camb3lyp.SO.results/
 Scratch directory: /state/partition2/vallet/930341.phlam-s-sakura/amstmp_uo2cl42-.tddft-TDA-camb3lyp.SO_kid0.1049524744/


 Communication costs MPI_COMM_WORLD:      2.819 usec per message,   0.0089 usec per 8-byte item
 Communication costs for intra-node:      0.628 usec per message,   0.0025 usec per 8-byte item

 RNG seed: -1195051865 -1423069068 1684477289 328157566 487381313 -2139999409 122763124 1535334465



                      ************************************************************************
                      *  ADF 2021.106  RunTime: Mar02-2023 13:47:30  ShM Nodes: 4  Procs: 8  *
                      ************************************************************************
  
       ****************************
       * SINGLE POINT CALCULATION *
       ****************************
 
--------
Geometry
--------
Formula: Cl4O2U
Atoms
  Index Symbol   x (angstrom)   y (angstrom)   z (angstrom)
      1      O    10.67465600     7.64800000    -1.34992800
      2     Cl    13.24943500     5.71550300    -1.17479000
      3     Cl    13.24943500     9.58049700    -1.17479000
      4     Cl    10.40856500     5.71550300     1.17479000
      5     Cl    10.40856500     9.58049700     1.17479000
      6      O    12.98334400     7.64800000     1.34992800
      7      U    11.82900000     7.64800000     0.00000000
 
Total System Charge            -2.00000
Bonding info available!
 
 
----------------
ADF Engine Input
----------------
 
 Basis
 Type TZ2P
 Core None
 End
 XC
 libxc CAM-B3LYP
 End
 Relativity
 Level Spin-Orbit
 End
 Symmetry NOSYM
 Excitations
 Allowed Yes
 Lowest 16
 NTO Yes
 Davidson
 End
 FullKernel Yes
 End
 NumericalQuality Good
 TDA Yes
 

 Title: *** (NO TITLE) ***

 *** adf ***



 ===========================
 A T T A C H E D   F I L E S
 ===========================
  



 ===============================
 M O D E L   P A R A M E T E R S
 ===============================
  
 Range separated functional parameters:
 RANGESEP OMEGA=    0.330000 ALPHA=    0.190000 BETA=    0.460000 ERF-LONGRANGE 
                                                                                
   
 DENSITY FUNCTIONAL POTENTIAL (scf)

   *** Range Separated Functional ***

 Regions:
   LibXC version: 5. 1. 2
   Exchange-correlation  T T T T F F F T T F F F F F F F F F F F F
   HF parameter =   0.65000000
   LIBXC GAMMA=    0.330000 ALPHA=    0.650000 BETA=   -0.460000
   CAM version of B3LYP (Hybrid GGA)
[1] T. Yanai, D. P. Tew, and N. C. Handy, Chem. Phys. Lett. 393, 51 (2004)

 SPIN  (restricted / unrestr.)
    Molecule:                          Restricted                               
    Fragments:                         Restricted                               

 OTHER ASPECTS
    Relativistic Corrections:          Spin-Orbit (ZORA,MAPA)                  == Not Default ==

    Nuclear Charge Density Model:      Point Charge Nuclei                      
    Core Treatment:                    Frozen Orbital(s)                        

    Hyperfine or Zeeman Interaction:   ---                                      


 Fragment File(s)
 ----------------
 O:
         file : /home/vallet/Bent-Uranyl/uo2_4cl/geom-Schnaars/uo2cl42-.tddft-TDA-camb3lyp.SO.results/t21.1786ABF1.O
         jobid: 0
         title: Oxygen (TZ2P)
 Cl:
         file : /home/vallet/Bent-Uranyl/uo2_4cl/geom-Schnaars/uo2cl42-.tddft-TDA-camb3lyp.SO.results/t21.37D265EA.Cl
         jobid: 0
         title: Chlorine (TZ2P)
 U:
         file : /home/vallet/Bent-Uranyl/uo2_4cl/geom-Schnaars/uo2cl42-.tddft-TDA-camb3lyp.SO.results/t21.6C1485AF.U
         jobid: 0
         title: Uranium (TZ2P, all electron)



 ===============
 G E O M E T R Y  ***  3D  Molecule  ***
 ===============
  

 ATOMS
 =====                            X Y Z                    CHARGE
                                (Angstrom)             Nucl     +Core       At.Mass
                       --------------------------    ----------------       -------
    1  O              10.6747    7.6480   -1.3499      8.00      8.00       15.9949
    2  Cl             13.2494    5.7155   -1.1748     17.00     17.00       34.9689
    3  Cl             13.2494    9.5805   -1.1748     17.00     17.00       34.9689
    4  Cl             10.4086    5.7155    1.1748     17.00     17.00       34.9689
    5  Cl             10.4086    9.5805    1.1748     17.00     17.00       34.9689
    6  O              12.9833    7.6480    1.3499      8.00      8.00       15.9949
    7  U              11.8290    7.6480    0.0000     92.00     92.00      238.0508


 FRAGMENTS
 =========                                     Atoms in this Fragment     Cart. coord.s (Angstrom)
                                               -------------------------------------------------------
    1  O                                                 1  O           10.6747    7.6480   -1.3499
    2  O                                                 6  O           12.9833    7.6480    1.3499
    3  Cl                                                2  Cl          13.2494    5.7155   -1.1748
    4  Cl                                                3  Cl          13.2494    9.5805   -1.1748
    5  Cl                                                4  Cl          10.4086    5.7155    1.1748
    6  Cl                                                5  Cl          10.4086    9.5805    1.1748
    7  U                                                 7  U           11.8290    7.6480    0.0000


 Interatomic Distance Matrix (Angstrom)
 --------------------------------------

   1)     0.000
   2)     3.224   0.000
   3)     3.224   3.865   0.000
   4)     3.191   3.687   5.341   0.000
   5)     3.191   5.341   3.687   3.865   0.000
   6)     3.552   3.191   3.191   3.224   3.224   0.000
   7)     1.776   2.671   2.671   2.671   2.671   1.776   0.000

 Min. Distance =    1.7762
 Max. Distance =    5.3413



 =====================================
 S Y M M E T R Y ,   E L E C T R O N S
 =====================================
  
 Symmetry: NOSYM

 Double Group Irreducible Representations (spinor symmetry)
 -----------------------------------------------------------
 A1/2

 Symmetry is NOT used when fitting density


 Configuration of Valence Electrons
 ==================================
 ( determined in the SCF procedure )

 Total:   178

 Net Charge: -2 (Nuclei minus Electrons)

 Aufbau principle for MO occupations will be applied through SCF cycle no.     150
 Thereafter, the program will assign electrons to MOs that are spatially
 similar to the occupied MOs in a "reference" cycle ("KeepOrbitals").
 The reference cycle is always the PREVIOUS cycle: it will evolve with
 the SCF procedure.
1
 ***************************************************************************************************



                                      ****************************************
                                      *  B U I L D : (Fragments, Functions)  *
                                      ****************************************
  



 =======
 S F O s  ***  (Symmetrized Fragment Orbitals)  ***
 =======
  
 SFOs are linear combinations of (valence) Fragment Orbitals (FOs), such that the SFOs transform as the
 irreducible representations of the (molecular) symmetry group. Each SFO is therefore characterized by
 an irrep of the molecule and by a few (or only one) generating FOs.
 The SFOs constitute a symmetry-adapted basis for the Fock matrix. The MO eigenvector coefficients in
 this basis provide a direct interpretation of the MOs in terms of Frontier Orbital Theory.

 The SFOs are combined with auxiliary Core Functions (CFs) to ensure orthogonalization on the (frozen)
 Core Orbitals (COs). The Core-orthogonalized SFOs (CSFOs) constitute the true Fock basis.

 The FOs, and hence also the (C)SFOs are combinations of the elementary basis functions (BAS). The basis
 functions that participate in the description of the SFOs depend on the irrep. The indices of the
 involved functions are printed below for each irrep.
 (The complete list of primitive basis functions is printed in another section)

 Total nr. of (C)SFOs (summation over all irreps) :   323

 NOTE: a (C)SFO that is defined as a combination of more than one FO is usually NOT normalized.

 NOTE: the (C)SFOs are single group symmetry adapted orbitals.



                                       === A ===
 Nr. of SFOs :  323
 Cartesian basis functions that participate in this irrep (total number =   371) :
      1     2     3     4     5     6     9    12     7    10
     13     8    11    14    15    16    17    18    19    20
     21    22    23    24    25    26    27    28    29    30
     31    32    33    34    35    36    39    42    37    40
     43    38    41    44    45    46    47    48    49    50
     51    52    53    54    55    56    57    58    59    60
     61    62    63    64    71    72    73    65    68    74
     77    80    66    69    75    78    81    67    70    76
     79    82    83    84    85    86    87    88    89    90
     91    92    93    94    95    96    97    98    99   100
    101   102   109   110   111   103   106   112   115   118
    104   107   113   116   119   105   108   114   117   120
    121   122   123   124   125   126   127   128   129   130
    131   132   133   134   135   136   137   138   139   140
    147   148   149   141   144   150   153   156   142   145
    151   154   157   143   146   152   155   158   159   160
    161   162   163   164   165   166   167   168   169   170
    171   172   173   174   175   176   177   178   185   186
    187   179   182   188   191   194   180   183   189   192
    195   181   184   190   193   196   197   198   199   200
    201   202   203   204   205   206   207   208   209   210
    211   212   213   214   215   216   217   218   219   220
    221   222   223   224   225   226   227   228   229   232
    235   238   241   244   247   250   253   256   259   262
    369   230   233   236   239   242   245   248   251   254
    257   260   263   370   231   234   237   240   243   246
    249   252   255   258   261   264   371   265   271   277
    283   289   295   301   307   313   266   272   278   284
    290   296   302   308   314   267   273   279   285   291
    297   303   309   315   268   274   280   286   292   298
    304   310   316   269   275   281   287   293   299   305
    311   317   270   276   282   288   294   300   306   312
    318   319   329   339   349   359   320   330   340   350
    360   321   331   341   351   361   322   332   342   352
    362   323   333   343   353   363   324   334   344   354
    364   325   335   345   355   365   326   336   346   356
    366   327   337   347   357   367   328   338   348   358
    368

    SFO  (index         Fragment          Generating    Expansion in Fragment Orbitals
  indx  incl.CFs)   Occup   Orb.Energy   FragmentType  Coeff.   Orbital     on Fragment
 --------------------------------------------------------------------------------------
     1       1      2.000     -19.398 au  O             1.00      1 S               1
                        (    -527.846 eV)
     2       2      2.000      -1.055 au  O             1.00      2 S               1
                        (     -28.706 eV)
     3       3       --         0.898 au  O             1.00      3 S               1
                        (      24.442 eV)
     4       4       --        13.659 au  O             1.00      4 S               1
                        (     371.685 eV)
     5       5       --       122.205 au  O             1.00      5 S               1
                        (    3325.373 eV)
     6       6      1.333      -0.391 au  O             1.00      1 P:x             1
                        (     -10.628 eV)
     7       7       --         0.430 au  O             1.00      2 P:x             1
                        (      11.691 eV)
     8       8       --         3.994 au  O             1.00      3 P:x             1
                        (     108.695 eV)
     9       9      1.333      -0.391 au  O             1.00      1 P:y             1
                        (     -10.628 eV)
    10      10       --         0.430 au  O             1.00      2 P:y             1
                        (      11.691 eV)
    11      11       --         3.994 au  O             1.00      3 P:y             1
                        (     108.695 eV)
    12      12      1.333      -0.391 au  O             1.00      1 P:z             1
                        (     -10.628 eV)
    13      13       --         0.430 au  O             1.00      2 P:z             1
                        (      11.691 eV)
    14      14       --         3.994 au  O             1.00      3 P:z             1
                        (     108.695 eV)
    15      15       --         1.180 au  O             1.00      1 D:z2            1
                        (      32.112 eV)
    16      16       --         1.180 au  O             1.00      1 D:x2-y2         1
                        (      32.112 eV)
    17      17       --         1.180 au  O             1.00      1 D:xy            1
                        (      32.112 eV)
    18      18       --         1.180 au  O             1.00      1 D:xz            1
                        (      32.112 eV)
    19      19       --         1.180 au  O             1.00      1 D:yz            1
                        (      32.112 eV)
    20      20       --         3.501 au  O             1.00      1 F:z3            1
                        (      95.277 eV)
    21      21       --         3.501 au  O             1.00      1 F:z             1
                        (      95.277 eV)
    22      22       --         3.501 au  O             1.00      1 F:xyz           1
                        (      95.277 eV)
    23      23       --         3.501 au  O             1.00      1 F:z2x           1
                        (      95.277 eV)
    24      24       --         3.501 au  O             1.00      1 F:z2y           1
                        (      95.277 eV)
    25      25       --         3.501 au  O             1.00      1 F:x             1
                        (      95.277 eV)
    26      26       --         3.501 au  O             1.00      1 F:y             1
                        (      95.277 eV)
    27      27      2.000     -19.398 au  O             1.00      1 S               2
                        (    -527.846 eV)
    28      28      2.000      -1.055 au  O             1.00      2 S               2
                        (     -28.706 eV)
    29      29       --         0.898 au  O             1.00      3 S               2
                        (      24.442 eV)
    30      30       --        13.659 au  O             1.00      4 S               2
                        (     371.685 eV)
    31      31       --       122.205 au  O             1.00      5 S               2
                        (    3325.373 eV)
    32      32      1.333      -0.391 au  O             1.00      1 P:x             2
                        (     -10.628 eV)
    33      33       --         0.430 au  O             1.00      2 P:x             2
                        (      11.691 eV)
    34      34       --         3.994 au  O             1.00      3 P:x             2
                        (     108.695 eV)
    35      35      1.333      -0.391 au  O             1.00      1 P:y             2
                        (     -10.628 eV)
    36      36       --         0.430 au  O             1.00      2 P:y             2
                        (      11.691 eV)
    37      37       --         3.994 au  O             1.00      3 P:y             2
                        (     108.695 eV)
    38      38      1.333      -0.391 au  O             1.00      1 P:z             2
                        (     -10.628 eV)
    39      39       --         0.430 au  O             1.00      2 P:z             2
                        (      11.691 eV)
    40      40       --         3.994 au  O             1.00      3 P:z             2
                        (     108.695 eV)
    41      41       --         1.180 au  O             1.00      1 D:z2            2
                        (      32.112 eV)
    42      42       --         1.180 au  O             1.00      1 D:x2-y2         2
                        (      32.112 eV)
    43      43       --         1.180 au  O             1.00      1 D:xy            2
                        (      32.112 eV)
    44      44       --         1.180 au  O             1.00      1 D:xz            2
                        (      32.112 eV)
    45      45       --         1.180 au  O             1.00      1 D:yz            2
                        (      32.112 eV)
    46      46       --         3.501 au  O             1.00      1 F:z3            2
                        (      95.277 eV)
    47      47       --         3.501 au  O             1.00      1 F:z             2
                        (      95.277 eV)
    48      48       --         3.501 au  O             1.00      1 F:xyz           2
                        (      95.277 eV)
    49      49       --         3.501 au  O             1.00      1 F:z2x           2
                        (      95.277 eV)
    50      50       --         3.501 au  O             1.00      1 F:z2y           2
                        (      95.277 eV)
    51      51       --         3.501 au  O             1.00      1 F:x             2
                        (      95.277 eV)
    52      52       --         3.501 au  O             1.00      1 F:y             2
                        (      95.277 eV)
    53      53      2.000    -102.006 au  Cl            1.00      1 S               3
                        (   -2775.733 eV)
    54      54      2.000      -9.646 au  Cl            1.00      2 S               3
                        (    -262.473 eV)
    55      55      2.000      -0.914 au  Cl            1.00      3 S               3
                        (     -24.882 eV)
    56      56       --         0.270 au  Cl            1.00      4 S               3
                        (       7.338 eV)
    57      57       --         2.124 au  Cl            1.00      5 S               3
                        (      57.791 eV)
    58      58       --        12.863 au  Cl            1.00      6 S               3
                        (     350.012 eV)
    59      59       --       206.203 au  Cl            1.00      7 S               3
                        (    5611.064 eV)
    60      60      2.000      -7.339 au  Cl            1.00      1 P:x             3
                        (    -199.700 eV)
    61      61      1.667      -0.392 au  Cl            1.00      2 P:x             3
                        (     -10.673 eV)
    62      62       --         0.296 au  Cl            1.00      3 P:x             3
                        (       8.050 eV)
    63      63       --         2.241 au  Cl            1.00      4 P:x             3
                        (      60.977 eV)
    64      64       --        18.987 au  Cl            1.00      5 P:x             3
                        (     516.660 eV)
    65      65      2.000      -7.339 au  Cl            1.00      1 P:y             3
                        (    -199.700 eV)
    66      66      1.667      -0.392 au  Cl            1.00      2 P:y             3
                        (     -10.673 eV)
    67      67       --         0.296 au  Cl            1.00      3 P:y             3
                        (       8.050 eV)
    68      68       --         2.241 au  Cl            1.00      4 P:y             3
                        (      60.977 eV)
    69      69       --        18.987 au  Cl            1.00      5 P:y             3
                        (     516.660 eV)
    70      70      2.000      -7.339 au  Cl            1.00      1 P:z             3
                        (    -199.700 eV)
    71      71      1.667      -0.392 au  Cl            1.00      2 P:z             3
                        (     -10.673 eV)
    72      72       --         0.296 au  Cl            1.00      3 P:z             3
                        (       8.050 eV)
    73      73       --         2.241 au  Cl            1.00      4 P:z             3
                        (      60.977 eV)
    74      74       --        18.987 au  Cl            1.00      5 P:z             3
                        (     516.660 eV)
    75      75       --         0.498 au  Cl            1.00      1 D:z2            3
                        (      13.551 eV)
    76      76       --         0.498 au  Cl            1.00      1 D:x2-y2         3
                        (      13.551 eV)
    77      77       --         0.498 au  Cl            1.00      1 D:xy            3
                        (      13.551 eV)
    78      78       --         0.498 au  Cl            1.00      1 D:xz            3
                        (      13.551 eV)
    79      79       --         0.498 au  Cl            1.00      1 D:yz            3
                        (      13.551 eV)
    80      80       --         1.307 au  Cl            1.00      1 F:z3            3
                        (      35.555 eV)
    81      81       --         1.307 au  Cl            1.00      1 F:z             3
                        (      35.555 eV)
    82      82       --         1.307 au  Cl            1.00      1 F:xyz           3
                        (      35.555 eV)
    83      83       --         1.307 au  Cl            1.00      1 F:z2x           3
                        (      35.555 eV)
    84      84       --         1.307 au  Cl            1.00      1 F:z2y           3
                        (      35.555 eV)
    85      85       --         1.307 au  Cl            1.00      1 F:x             3
                        (      35.555 eV)
    86      86       --         1.307 au  Cl            1.00      1 F:y             3
                        (      35.555 eV)
    87      87      2.000    -102.006 au  Cl            1.00      1 S               4
                        (   -2775.733 eV)
    88      88      2.000      -9.646 au  Cl            1.00      2 S               4
                        (    -262.473 eV)
    89      89      2.000      -0.914 au  Cl            1.00      3 S               4
                        (     -24.882 eV)
    90      90       --         0.270 au  Cl            1.00      4 S               4
                        (       7.338 eV)
    91      91       --         2.124 au  Cl            1.00      5 S               4
                        (      57.791 eV)
    92      92       --        12.863 au  Cl            1.00      6 S               4
                        (     350.012 eV)
    93      93       --       206.203 au  Cl            1.00      7 S               4
                        (    5611.064 eV)
    94      94      2.000      -7.339 au  Cl            1.00      1 P:x             4
                        (    -199.700 eV)
    95      95      1.667      -0.392 au  Cl            1.00      2 P:x             4
                        (     -10.673 eV)
    96      96       --         0.296 au  Cl            1.00      3 P:x             4
                        (       8.050 eV)
    97      97       --         2.241 au  Cl            1.00      4 P:x             4
                        (      60.977 eV)
    98      98       --        18.987 au  Cl            1.00      5 P:x             4
                        (     516.660 eV)
    99      99      2.000      -7.339 au  Cl            1.00      1 P:y             4
                        (    -199.700 eV)
   100     100      1.667      -0.392 au  Cl            1.00      2 P:y             4
                        (     -10.673 eV)
   101     101       --         0.296 au  Cl            1.00      3 P:y             4
                        (       8.050 eV)
   102     102       --         2.241 au  Cl            1.00      4 P:y             4
                        (      60.977 eV)
   103     103       --        18.987 au  Cl            1.00      5 P:y             4
                        (     516.660 eV)
   104     104      2.000      -7.339 au  Cl            1.00      1 P:z             4
                        (    -199.700 eV)
   105     105      1.667      -0.392 au  Cl            1.00      2 P:z             4
                        (     -10.673 eV)
   106     106       --         0.296 au  Cl            1.00      3 P:z             4
                        (       8.050 eV)
   107     107       --         2.241 au  Cl            1.00      4 P:z             4
                        (      60.977 eV)
   108     108       --        18.987 au  Cl            1.00      5 P:z             4
                        (     516.660 eV)
   109     109       --         0.498 au  Cl            1.00      1 D:z2            4
                        (      13.551 eV)
   110     110       --         0.498 au  Cl            1.00      1 D:x2-y2         4
                        (      13.551 eV)
   111     111       --         0.498 au  Cl            1.00      1 D:xy            4
                        (      13.551 eV)
   112     112       --         0.498 au  Cl            1.00      1 D:xz            4
                        (      13.551 eV)
   113     113       --         0.498 au  Cl            1.00      1 D:yz            4
                        (      13.551 eV)
   114     114       --         1.307 au  Cl            1.00      1 F:z3            4
                        (      35.555 eV)
   115     115       --         1.307 au  Cl            1.00      1 F:z             4
                        (      35.555 eV)
   116     116       --         1.307 au  Cl            1.00      1 F:xyz           4
                        (      35.555 eV)
   117     117       --         1.307 au  Cl            1.00      1 F:z2x           4
                        (      35.555 eV)
   118     118       --         1.307 au  Cl            1.00      1 F:z2y           4
                        (      35.555 eV)
   119     119       --         1.307 au  Cl            1.00      1 F:x             4
                        (      35.555 eV)
   120     120       --         1.307 au  Cl            1.00      1 F:y             4
                        (      35.555 eV)
   121     121      2.000    -102.006 au  Cl            1.00      1 S               5
                        (   -2775.733 eV)
   122     122      2.000      -9.646 au  Cl            1.00      2 S               5
                        (    -262.473 eV)
   123     123      2.000      -0.914 au  Cl            1.00      3 S               5
                        (     -24.882 eV)
   124     124       --         0.270 au  Cl            1.00      4 S               5
                        (       7.338 eV)
   125     125       --         2.124 au  Cl            1.00      5 S               5
                        (      57.791 eV)
   126     126       --        12.863 au  Cl            1.00      6 S               5
                        (     350.012 eV)
   127     127       --       206.203 au  Cl            1.00      7 S               5
                        (    5611.064 eV)
   128     128      2.000      -7.339 au  Cl            1.00      1 P:x             5
                        (    -199.700 eV)
   129     129      1.667      -0.392 au  Cl            1.00      2 P:x             5
                        (     -10.673 eV)
   130     130       --         0.296 au  Cl            1.00      3 P:x             5
                        (       8.050 eV)
   131     131       --         2.241 au  Cl            1.00      4 P:x             5
                        (      60.977 eV)
   132     132       --        18.987 au  Cl            1.00      5 P:x             5
                        (     516.660 eV)
   133     133      2.000      -7.339 au  Cl            1.00      1 P:y             5
                        (    -199.700 eV)
   134     134      1.667      -0.392 au  Cl            1.00      2 P:y             5
                        (     -10.673 eV)
   135     135       --         0.296 au  Cl            1.00      3 P:y             5
                        (       8.050 eV)
   136     136       --         2.241 au  Cl            1.00      4 P:y             5
                        (      60.977 eV)
   137     137       --        18.987 au  Cl            1.00      5 P:y             5
                        (     516.660 eV)
   138     138      2.000      -7.339 au  Cl            1.00      1 P:z             5
                        (    -199.700 eV)
   139     139      1.667      -0.392 au  Cl            1.00      2 P:z             5
                        (     -10.673 eV)
   140     140       --         0.296 au  Cl            1.00      3 P:z             5
                        (       8.050 eV)
   141     141       --         2.241 au  Cl            1.00      4 P:z             5
                        (      60.977 eV)
   142     142       --        18.987 au  Cl            1.00      5 P:z             5
                        (     516.660 eV)
   143     143       --         0.498 au  Cl            1.00      1 D:z2            5
                        (      13.551 eV)
   144     144       --         0.498 au  Cl            1.00      1 D:x2-y2         5
                        (      13.551 eV)
   145     145       --         0.498 au  Cl            1.00      1 D:xy            5
                        (      13.551 eV)
   146     146       --         0.498 au  Cl            1.00      1 D:xz            5
                        (      13.551 eV)
   147     147       --         0.498 au  Cl            1.00      1 D:yz            5
                        (      13.551 eV)
   148     148       --         1.307 au  Cl            1.00      1 F:z3            5
                        (      35.555 eV)
   149     149       --         1.307 au  Cl            1.00      1 F:z             5
                        (      35.555 eV)
   150     150       --         1.307 au  Cl            1.00      1 F:xyz           5
                        (      35.555 eV)
   151     151       --         1.307 au  Cl            1.00      1 F:z2x           5
                        (      35.555 eV)
   152     152       --         1.307 au  Cl            1.00      1 F:z2y           5
                        (      35.555 eV)
   153     153       --         1.307 au  Cl            1.00      1 F:x             5
                        (      35.555 eV)
   154     154       --         1.307 au  Cl            1.00      1 F:y             5
                        (      35.555 eV)
   155     155      2.000    -102.006 au  Cl            1.00      1 S               6
                        (   -2775.733 eV)
   156     156      2.000      -9.646 au  Cl            1.00      2 S               6
                        (    -262.473 eV)
   157     157      2.000      -0.914 au  Cl            1.00      3 S               6
                        (     -24.882 eV)
   158     158       --         0.270 au  Cl            1.00      4 S               6
                        (       7.338 eV)
   159     159       --         2.124 au  Cl            1.00      5 S               6
                        (      57.791 eV)
   160     160       --        12.863 au  Cl            1.00      6 S               6
                        (     350.012 eV)
   161     161       --       206.203 au  Cl            1.00      7 S               6
                        (    5611.064 eV)
   162     162      2.000      -7.339 au  Cl            1.00      1 P:x             6
                        (    -199.700 eV)
   163     163      1.667      -0.392 au  Cl            1.00      2 P:x             6
                        (     -10.673 eV)
   164     164       --         0.296 au  Cl            1.00      3 P:x             6
                        (       8.050 eV)
   165     165       --         2.241 au  Cl            1.00      4 P:x             6
                        (      60.977 eV)
   166     166       --        18.987 au  Cl            1.00      5 P:x             6
                        (     516.660 eV)
   167     167      2.000      -7.339 au  Cl            1.00      1 P:y             6
                        (    -199.700 eV)
   168     168      1.667      -0.392 au  Cl            1.00      2 P:y             6
                        (     -10.673 eV)
   169     169       --         0.296 au  Cl            1.00      3 P:y             6
                        (       8.050 eV)
   170     170       --         2.241 au  Cl            1.00      4 P:y             6
                        (      60.977 eV)
   171     171       --        18.987 au  Cl            1.00      5 P:y             6
                        (     516.660 eV)
   172     172      2.000      -7.339 au  Cl            1.00      1 P:z             6
                        (    -199.700 eV)
   173     173      1.667      -0.392 au  Cl            1.00      2 P:z             6
                        (     -10.673 eV)
   174     174       --         0.296 au  Cl            1.00      3 P:z             6
                        (       8.050 eV)
   175     175       --         2.241 au  Cl            1.00      4 P:z             6
                        (      60.977 eV)
   176     176       --        18.987 au  Cl            1.00      5 P:z             6
                        (     516.660 eV)
   177     177       --         0.498 au  Cl            1.00      1 D:z2            6
                        (      13.551 eV)
   178     178       --         0.498 au  Cl            1.00      1 D:x2-y2         6
                        (      13.551 eV)
   179     179       --         0.498 au  Cl            1.00      1 D:xy            6
                        (      13.551 eV)
   180     180       --         0.498 au  Cl            1.00      1 D:xz            6
                        (      13.551 eV)
   181     181       --         0.498 au  Cl            1.00      1 D:yz            6
                        (      13.551 eV)
   182     182       --         1.307 au  Cl            1.00      1 F:z3            6
                        (      35.555 eV)
   183     183       --         1.307 au  Cl            1.00      1 F:z             6
                        (      35.555 eV)
   184     184       --         1.307 au  Cl            1.00      1 F:xyz           6
                        (      35.555 eV)
   185     185       --         1.307 au  Cl            1.00      1 F:z2x           6
                        (      35.555 eV)
   186     186       --         1.307 au  Cl            1.00      1 F:z2y           6
                        (      35.555 eV)
   187     187       --         1.307 au  Cl            1.00      1 F:x             6
                        (      35.555 eV)
   188     188       --         1.307 au  Cl            1.00      1 F:y             6
                        (      35.555 eV)
   189     189      2.000   -4251.353 au  U             1.00      1 S               7
                        ( -115685.196 eV)
   190     190      2.000    -796.441 au  U             1.00      2 S               7
                        (  -21672.268 eV)
   191     191      2.000    -201.892 au  U             1.00      3 S               7
                        (   -5493.749 eV)
   192     192      2.000     -51.876 au  U             1.00      4 S               7
                        (   -1411.630 eV)
   193     193      2.000     -11.729 au  U             1.00      5 S               7
                        (    -319.169 eV)
   194     194      2.000      -1.945 au  U             1.00      6 S               7
                        (     -52.927 eV)
   195     195      2.000      -0.213 au  U             1.00      7 S               7
                        (      -5.803 eV)
   196     196       --         0.048 au  U             1.00      8 S               7
                        (       1.304 eV)
   197     197       --         0.365 au  U             1.00      9 S               7
                        (       9.926 eV)
   198     198       --         1.710 au  U             1.00     10 S               7
                        (      46.524 eV)
   199     199       --         8.839 au  U             1.00     11 S               7
                        (     240.518 eV)
   200     200       --        47.595 au  U             1.00     12 S               7
                        (    1295.126 eV)
   201     201       --      1081.390 au  U             1.00     13 S               7
                        (   29426.119 eV)
   202     202       --      5574.427 au  U             1.00     14 S               7
                        (  151687.880 eV)
   203     203       --     16665.542 au  U             1.00     15 S               7
                        (  453492.485 eV)
   204     204       --     47306.872 au  U             1.00     16 S               7
                        ( 1287285.481 eV)
   205     205      2.000    -662.462 au  U             1.00      1 P:x             7
                        (  -18026.515 eV)
   206     206      2.000    -164.599 au  U             1.00      2 P:x             7
                        (   -4478.961 eV)
   207     207      2.000     -39.673 au  U             1.00      3 P:x             7
                        (   -1079.554 eV)
   208     208      2.000      -7.932 au  U             1.00      4 P:x             7
                        (    -215.835 eV)
   209     209      2.000      -0.994 au  U             1.00      5 P:x             7
                        (     -27.045 eV)
   210     210       --         0.020 au  U             1.00      6 P:x             7
                        (       0.556 eV)
   211     211       --         0.440 au  U             1.00      7 P:x             7
                        (      11.979 eV)
   212     212       --         1.884 au  U             1.00      8 P:x             7
                        (      51.264 eV)
   213     213       --         7.651 au  U             1.00      9 P:x             7
                        (     208.183 eV)
   214     214       --        36.626 au  U             1.00     10 P:x             7
                        (     996.655 eV)
   215     215       --       183.078 au  U             1.00     11 P:x             7
                        (    4981.805 eV)
   216     216       --      1551.559 au  U             1.00     12 P:x             7
                        (   42220.063 eV)
   217     217       --     11017.681 au  U             1.00     13 P:x             7
                        (  299806.354 eV)
   218     218      2.000    -662.462 au  U             1.00      1 P:y             7
                        (  -18026.515 eV)
   219     219      2.000    -164.599 au  U             1.00      2 P:y             7
                        (   -4478.961 eV)
   220     220      2.000     -39.673 au  U             1.00      3 P:y             7
                        (   -1079.554 eV)
   221     221      2.000      -7.932 au  U             1.00      4 P:y             7
                        (    -215.835 eV)
   222     222      2.000      -0.994 au  U             1.00      5 P:y             7
                        (     -27.045 eV)
   223     223       --         0.020 au  U             1.00      6 P:y             7
                        (       0.556 eV)
   224     224       --         0.440 au  U             1.00      7 P:y             7
                        (      11.979 eV)
   225     225       --         1.884 au  U             1.00      8 P:y             7
                        (      51.264 eV)
   226     226       --         7.651 au  U             1.00      9 P:y             7
                        (     208.183 eV)
   227     227       --        36.626 au  U             1.00     10 P:y             7
                        (     996.655 eV)
   228     228       --       183.078 au  U             1.00     11 P:y             7
                        (    4981.805 eV)
   229     229       --      1551.559 au  U             1.00     12 P:y             7
                        (   42220.063 eV)
   230     230       --     11017.681 au  U             1.00     13 P:y             7
                        (  299806.354 eV)
   231     231      2.000    -662.462 au  U             1.00      1 P:z             7
                        (  -18026.515 eV)
   232     232      2.000    -164.599 au  U             1.00      2 P:z             7
                        (   -4478.961 eV)
   233     233      2.000     -39.673 au  U             1.00      3 P:z             7
                        (   -1079.554 eV)
   234     234      2.000      -7.932 au  U             1.00      4 P:z             7
                        (    -215.835 eV)
   235     235      2.000      -0.994 au  U             1.00      5 P:z             7
                        (     -27.045 eV)
   236     236       --         0.020 au  U             1.00      6 P:z             7
                        (       0.556 eV)
   237     237       --         0.440 au  U             1.00      7 P:z             7
                        (      11.979 eV)
   238     238       --         1.884 au  U             1.00      8 P:z             7
                        (      51.264 eV)
   239     239       --         7.651 au  U             1.00      9 P:z             7
                        (     208.183 eV)
   240     240       --        36.626 au  U             1.00     10 P:z             7
                        (     996.655 eV)
   241     241       --       183.078 au  U             1.00     11 P:z             7
                        (    4981.805 eV)
   242     242       --      1551.559 au  U             1.00     12 P:z             7
                        (   42220.063 eV)
   243     243       --     11017.681 au  U             1.00     13 P:z             7
                        (  299806.354 eV)
   244     244      2.000    -132.007 au  U             1.00      1 D:z2            7
                        (   -3592.098 eV)
   245     245      2.000     -27.274 au  U             1.00      2 D:z2            7
                        (    -742.171 eV)
   246     246      2.000      -3.863 au  U             1.00      3 D:z2            7
                        (    -105.123 eV)
   247     247      0.200      -0.032 au  U             1.00      4 D:z2            7
                        (      -0.878 eV)
   248     248       --         0.088 au  U             1.00      5 D:z2            7
                        (       2.389 eV)
   249     249       --         0.510 au  U             1.00      6 D:z2            7
                        (      13.866 eV)
   250     250       --         3.364 au  U             1.00      7 D:z2            7
                        (      91.549 eV)
   251     251       --        24.287 au  U             1.00      8 D:z2            7
                        (     660.870 eV)
   252     252       --       197.255 au  U             1.00      9 D:z2            7
                        (    5367.594 eV)
   253     253      2.000    -132.007 au  U             1.00      1 D:x2-y2         7
                        (   -3592.098 eV)
   254     254      2.000     -27.274 au  U             1.00      2 D:x2-y2         7
                        (    -742.171 eV)
   255     255      2.000      -3.863 au  U             1.00      3 D:x2-y2         7
                        (    -105.123 eV)
   256     256      0.200      -0.032 au  U             1.00      4 D:x2-y2         7
                        (      -0.878 eV)
   257     257       --         0.088 au  U             1.00      5 D:x2-y2         7
                        (       2.389 eV)
   258     258       --         0.510 au  U             1.00      6 D:x2-y2         7
                        (      13.866 eV)
   259     259       --         3.364 au  U             1.00      7 D:x2-y2         7
                        (      91.549 eV)
   260     260       --        24.287 au  U             1.00      8 D:x2-y2         7
                        (     660.870 eV)
   261     261       --       197.255 au  U             1.00      9 D:x2-y2         7
                        (    5367.594 eV)
   262     262      2.000    -132.007 au  U             1.00      1 D:xy            7
                        (   -3592.098 eV)
   263     263      2.000     -27.274 au  U             1.00      2 D:xy            7
                        (    -742.171 eV)
   264     264      2.000      -3.863 au  U             1.00      3 D:xy            7
                        (    -105.123 eV)
   265     265      0.200      -0.032 au  U             1.00      4 D:xy            7
                        (      -0.878 eV)
   266     266       --         0.088 au  U             1.00      5 D:xy            7
                        (       2.389 eV)
   267     267       --         0.510 au  U             1.00      6 D:xy            7
                        (      13.866 eV)
   268     268       --         3.364 au  U             1.00      7 D:xy            7
                        (      91.549 eV)
   269     269       --        24.287 au  U             1.00      8 D:xy            7
                        (     660.870 eV)
   270     270       --       197.255 au  U             1.00      9 D:xy            7
                        (    5367.594 eV)
   271     271      2.000    -132.007 au  U             1.00      1 D:xz            7
                        (   -3592.098 eV)
   272     272      2.000     -27.274 au  U             1.00      2 D:xz            7
                        (    -742.171 eV)
   273     273      2.000      -3.863 au  U             1.00      3 D:xz            7
                        (    -105.123 eV)
   274     274      0.200      -0.032 au  U             1.00      4 D:xz            7
                        (      -0.878 eV)
   275     275       --         0.088 au  U             1.00      5 D:xz            7
                        (       2.389 eV)
   276     276       --         0.510 au  U             1.00      6 D:xz            7
                        (      13.866 eV)
   277     277       --         3.364 au  U             1.00      7 D:xz            7
                        (      91.549 eV)
   278     278       --        24.287 au  U             1.00      8 D:xz            7
                        (     660.870 eV)
   279     279       --       197.255 au  U             1.00      9 D:xz            7
                        (    5367.594 eV)
   280     280      2.000    -132.007 au  U             1.00      1 D:yz            7
                        (   -3592.098 eV)
   281     281      2.000     -27.274 au  U             1.00      2 D:yz            7
                        (    -742.171 eV)
   282     282      2.000      -3.863 au  U             1.00      3 D:yz            7
                        (    -105.123 eV)
   283     283      0.200      -0.032 au  U             1.00      4 D:yz            7
                        (      -0.878 eV)
   284     284       --         0.088 au  U             1.00      5 D:yz            7
                        (       2.389 eV)
   285     285       --         0.510 au  U             1.00      6 D:yz            7
                        (      13.866 eV)
   286     286       --         3.364 au  U             1.00      7 D:yz            7
                        (      91.549 eV)
   287     287       --        24.287 au  U             1.00      8 D:yz            7
                        (     660.870 eV)
   288     288       --       197.255 au  U             1.00      9 D:yz            7
                        (    5367.594 eV)
   289     289      2.000     -14.070 au  U             1.00      1 F:z3            7
                        (    -382.852 eV)
   290     290      0.429      -0.056 au  U             1.00      2 F:z3            7
                        (      -1.528 eV)
   291     291       --         0.379 au  U             1.00      3 F:z3            7
                        (      10.321 eV)
   292     292       --         2.236 au  U             1.00      4 F:z3            7
                        (      60.848 eV)
   293     293       --        21.518 au  U             1.00      5 F:z3            7
                        (     585.544 eV)
   294     294      2.000     -14.070 au  U             1.00      1 F:z             7
                        (    -382.852 eV)
   295     295      0.429      -0.056 au  U             1.00      2 F:z             7
                        (      -1.528 eV)
   296     296       --         0.379 au  U             1.00      3 F:z             7
                        (      10.321 eV)
   297     297       --         2.236 au  U             1.00      4 F:z             7
                        (      60.848 eV)
   298     298       --        21.518 au  U             1.00      5 F:z             7
                        (     585.544 eV)
   299     299      2.000     -14.070 au  U             1.00      1 F:xyz           7
                        (    -382.852 eV)
   300     300      0.429      -0.056 au  U             1.00      2 F:xyz           7
                        (      -1.528 eV)
   301     301       --         0.379 au  U             1.00      3 F:xyz           7
                        (      10.321 eV)
   302     302       --         2.236 au  U             1.00      4 F:xyz           7
                        (      60.848 eV)
   303     303       --        21.518 au  U             1.00      5 F:xyz           7
                        (     585.544 eV)
   304     304      2.000     -14.070 au  U             1.00      1 F:z2x           7
                        (    -382.852 eV)
   305     305      0.429      -0.056 au  U             1.00      2 F:z2x           7
                        (      -1.528 eV)
   306     306       --         0.379 au  U             1.00      3 F:z2x           7
                        (      10.321 eV)
   307     307       --         2.236 au  U             1.00      4 F:z2x           7
                        (      60.848 eV)
   308     308       --        21.518 au  U             1.00      5 F:z2x           7
                        (     585.544 eV)
   309     309      2.000     -14.070 au  U             1.00      1 F:z2y           7
                        (    -382.852 eV)
   310     310      0.429      -0.056 au  U             1.00      2 F:z2y           7
                        (      -1.528 eV)
   311     311       --         0.379 au  U             1.00      3 F:z2y           7
                        (      10.321 eV)
   312     312       --         2.236 au  U             1.00      4 F:z2y           7
                        (      60.848 eV)
   313     313       --        21.518 au  U             1.00      5 F:z2y           7
                        (     585.544 eV)
   314     314      2.000     -14.070 au  U             1.00      1 F:x             7
                        (    -382.852 eV)
   315     315      0.429      -0.056 au  U             1.00      2 F:x             7
                        (      -1.528 eV)
   316     316       --         0.379 au  U             1.00      3 F:x             7
                        (      10.321 eV)
   317     317       --         2.236 au  U             1.00      4 F:x             7
                        (      60.848 eV)
   318     318       --        21.518 au  U             1.00      5 F:x             7
                        (     585.544 eV)
   319     319      2.000     -14.070 au  U             1.00      1 F:y             7
                        (    -382.852 eV)
   320     320      0.429      -0.056 au  U             1.00      2 F:y             7
                        (      -1.528 eV)
   321     321       --         0.379 au  U             1.00      3 F:y             7
                        (      10.321 eV)
   322     322       --         2.236 au  U             1.00      4 F:y             7
                        (      60.848 eV)
   323     323       --        21.518 au  U             1.00      5 F:y             7
                        (     585.544 eV)



 ================================
 (Slater-type)  F U N C T I O N S  ***  (Basis and Fit)  ***
 ================================
  

 Atom Type    1  (O)
 ==============

 Valence Basis Sets:  10
 -----------------------
   1 S    9.800000
   1 S    6.800000
   2 S    7.580000
   2 S    2.880000
   2 S    1.720000
   2 P    4.080000
   2 P    2.080000
   2 P    1.120000
   3 D    2.000000
   4 F    3.000000

 Charge Fitting Sets (for the computation of the Coulomb Potential):  22
 -----------------------------------------------------------------------
   1 S   19.600000
   2 S   22.600000
   2 S   15.680000
   2 S   10.890000
   2 S    7.560000
   3 S    7.690000
   3 S    5.650000
   3 S    4.150000
   3 S    3.050000
   3 S    2.240000
   2 P   12.860000
   2 P    7.680000
   3 P    6.780000
   3 P    4.390000
   3 P    2.840000
   3 D    8.800000
   3 D    5.580000
   3 D    3.530000
   3 D    2.240000
   4 F    6.200000
   4 F    3.700000
   5 G    4.500000

 Atom Type    2  (Cl)
 ==============

 Valence Basis Sets:  14
 -----------------------
   1 S   20.300000
   1 S   15.250000
   2 S    6.250000
   2 S    4.450000
   2 P    8.850000
   2 P    5.050000
   3 S    3.450000
   3 S    2.300000
   3 S    1.600000
   3 P    3.350000
   3 P    2.050000
   3 P    1.200000
   3 D    2.000000
   4 F    2.000000

 Charge Fitting Sets (for the computation of the Coulomb Potential):  30
 -----------------------------------------------------------------------
   1 S   40.600000
   1 S   24.830000
   2 S   28.080000
   2 S   19.200000
   3 S   19.250000
   3 S   13.970000
   3 S   10.130000
   4 S    9.710000
   4 S    7.320000
   4 S    5.510000
   5 S    5.170000
   5 S    4.000000
   5 S    3.100000
   5 S    2.400000
   2 P   29.150000
   3 P   21.740000
   4 P   16.160000
   4 P    9.600000
   5 P    7.180000
   5 P    4.480000
   5 P    2.800000
   3 D   21.950000
   4 D   15.750000
   4 D    9.040000
   5 D    6.550000
   5 D    3.960000
   5 D    2.400000
   4 F    5.000000
   4 F    3.000000
   5 G    3.500000

 Atom Type    3  (U)
 ==============

 Valence Basis Sets:  43
 -----------------------
   1 S 1060.000000
   1 S  245.000000
   1 S  108.800000
   2 S  134.900000
   2 S   47.200000
   3 S   60.000000
   3 S   25.900000
   4 S   15.800000
   4 S   11.100000
   5 S   10.450000
   5 S    7.250000
   6 S    5.000000
   6 S    3.300000
   7 S    2.350000
   7 S    1.550000
   7 S    1.020000
   2 P  245.000000
   2 P   85.500000
   2 P   44.200000
   3 P   25.100000
   3 P   18.100000
   4 P   17.900000
   4 P   12.300000
   5 P    8.650000
   5 P    6.000000
   6 P    4.450000
   6 P    3.000000
   6 P    2.100000
   3 D   33.250000
   3 D   22.050000
   4 D   15.250000
   4 D   10.550000
   5 D    7.250000
   5 D    4.650000
   6 D    2.900000
   6 D    1.600000
   6 D    0.880000
   4 F   17.450000
   4 F    9.600000
   5 F    5.800000
   5 F    3.000000
   5 F    1.390000
   7 P    1.550000

 Charge Fitting Sets (for the computation of the Coulomb Potential):  87
 -----------------------------------------------------------------------
   1 S 2120.000000
   1 S 1594.965000
   1 S 1199.960000
   1 S  902.780000
   1 S  679.200000
   1 S  510.990000
   1 S  384.440000
   1 S  289.230000
   1 S  217.600000
   1 S  129.260000
   2 S  142.240000
   2 S   95.100000
   3 S   93.370000
   3 S   66.470000
   4 S   62.580000
   4 S   46.380000
   5 S   42.820000
   5 S   32.660000
   6 S   29.850000
   6 S   23.270000
   7 S   21.150000
   7 S   16.770000
   8 S   15.210000
   8 S   12.230000
   9 S   11.070000
   9 S    9.010000
  10 S    8.150000
  10 S    6.700000
  11 S    6.070000
  11 S    5.030000
  12 S    4.550000
  12 S    3.810000
  12 S    3.180000
  13 S    2.880000
  13 S    2.420000
  13 S    2.040000
   2 P  153.000000
   3 P  127.690000
   4 P  104.620000
   5 P   85.360000
   6 P   69.720000
   7 P   57.130000
   7 P   40.980000
   8 P   33.710000
   8 P   24.670000
   9 P   20.380000
   9 P   15.180000
  10 P   12.590000
  10 P    9.510000
  11 P    7.920000
  11 P    6.060000
  12 P    5.070000
  12 P    3.920000
  13 P    3.290000
  13 P    2.570000
   3 D  130.850000
   4 D   91.890000
   5 D   65.340000
   6 D   47.080000
   7 D   34.350000
   8 D   25.360000
   9 D   18.910000
   9 D   12.740000
  10 D    9.600000
  10 D    6.590000
  11 D    5.010000
  11 D    3.500000
  12 D    2.680000
  12 D    1.900000
   4 F  118.400000
   5 F   72.780000
   6 F   45.920000
   7 F   29.630000
   8 F   19.500000
   9 F   13.050000
  10 F    8.870000
  10 F    5.510000
  11 F    3.800000
  11 F    2.410000
   5 G   53.800000
   6 G   31.220000
   7 G   18.640000
   8 G   11.410000
   9 G    7.140000
  10 G    4.550000
  11 G    2.950000
  11 G    1.760000


 BAS: List of all Elementary Cartesian Basis Functions
 =====================================================

 The numbering in the list below (to the right of the function characteristics) is referred
 to in print-outs of MO eigenvectors and Mulliken populations in the BAS representation
 (as contrasted to the SFO representation).

 Notes:
 1. The functions are characterized by a polynomial prefactor (powers of x,y,z and r) and
    an exponential decay factor alpha.
 2. Since the basis sets are specific for an atom TYPE, the individual functions occur on
    all atoms of that type.
 3. The word 'Core' in the left margin signals that it is a Core Function (CF) : not a
    degree of freedom in the valence set, but only used to ensure orthogonalization of
    the other valence basis functions on the frozen Core Orbitals.


 (power of) X  Y  Z  R     Alpha  on Atom
            ==========     =====     ==========

 O                                    1    2
                                  ---------------------------------------------------------------------------
            0  0  0  0     9.800      1   31
            0  0  0  0     6.800      2   32
            0  0  0  1     7.580      3   33
            0  0  0  1     2.880      4   34
            0  0  0  1     1.720      5   35
            1  0  0  0     4.080      6   36
            0  1  0  0     4.080      7   37
            0  0  1  0     4.080      8   38
            1  0  0  0     2.080      9   39
            0  1  0  0     2.080     10   40
            0  0  1  0     2.080     11   41
            1  0  0  0     1.120     12   42
            0  1  0  0     1.120     13   43
            0  0  1  0     1.120     14   44
            2  0  0  0     2.000     15   45
            1  1  0  0     2.000     16   46
            1  0  1  0     2.000     17   47
            0  2  0  0     2.000     18   48
            0  1  1  0     2.000     19   49
            0  0  2  0     2.000     20   50
            3  0  0  0     3.000     21   51
            2  1  0  0     3.000     22   52
            2  0  1  0     3.000     23   53
            1  2  0  0     3.000     24   54
            1  1  1  0     3.000     25   55
            1  0  2  0     3.000     26   56
            0  3  0  0     3.000     27   57
            0  2  1  0     3.000     28   58
            0  1  2  0     3.000     29   59
            0  0  3  0     3.000     30   60

 Cl                                   3    4    5    6
                                  ---------------------------------------------------------------------------
            0  0  0  0    20.300     61   99  137  175
            0  0  0  0    15.250     62  100  138  176
            0  0  0  1     6.250     63  101  139  177
            0  0  0  1     4.450     64  102  140  178
            1  0  0  0     8.850     65  103  141  179
            0  1  0  0     8.850     66  104  142  180
            0  0  1  0     8.850     67  105  143  181
            1  0  0  0     5.050     68  106  144  182
            0  1  0  0     5.050     69  107  145  183
            0  0  1  0     5.050     70  108  146  184
            0  0  0  2     3.450     71  109  147  185
            0  0  0  2     2.300     72  110  148  186
            0  0  0  2     1.600     73  111  149  187
            1  0  0  1     3.350     74  112  150  188
            0  1  0  1     3.350     75  113  151  189
            0  0  1  1     3.350     76  114  152  190
            1  0  0  1     2.050     77  115  153  191
            0  1  0  1     2.050     78  116  154  192
            0  0  1  1     2.050     79  117  155  193
            1  0  0  1     1.200     80  118  156  194
            0  1  0  1     1.200     81  119  157  195
            0  0  1  1     1.200     82  120  158  196
            2  0  0  0     2.000     83  121  159  197
            1  1  0  0     2.000     84  122  160  198
            1  0  1  0     2.000     85  123  161  199
            0  2  0  0     2.000     86  124  162  200
            0  1  1  0     2.000     87  125  163  201
            0  0  2  0     2.000     88  126  164  202
            3  0  0  0     2.000     89  127  165  203
            2  1  0  0     2.000     90  128  166  204
            2  0  1  0     2.000     91  129  167  205
            1  2  0  0     2.000     92  130  168  206
            1  1  1  0     2.000     93  131  169  207
            1  0  2  0     2.000     94  132  170  208
            0  3  0  0     2.000     95  133  171  209
            0  2  1  0     2.000     96  134  172  210
            0  1  2  0     2.000     97  135  173  211
            0  0  3  0     2.000     98  136  174  212

 U                                    7
                                  ---------------------------------------------------------------------------
            0  0  0  0  1060.000    213
            0  0  0  0   245.000    214
            0  0  0  0   108.800    215
            0  0  0  1   134.900    216
            0  0  0  1    47.200    217
            0  0  0  2    60.000    218
            0  0  0  2    25.900    219
            0  0  0  3    15.800    220
            0  0  0  3    11.100    221
            0  0  0  4    10.450    222
            0  0  0  4     7.250    223
            0  0  0  5     5.000    224
            0  0  0  5     3.300    225
            0  0  0  6     2.350    226
            0  0  0  6     1.550    227
            0  0  0  6     1.020    228
            1  0  0  0   245.000    229
            0  1  0  0   245.000    230
            0  0  1  0   245.000    231
            1  0  0  0    85.500    232
            0  1  0  0    85.500    233
            0  0  1  0    85.500    234
            1  0  0  0    44.200    235
            0  1  0  0    44.200    236
            0  0  1  0    44.200    237
            1  0  0  1    25.100    238
            0  1  0  1    25.100    239
            0  0  1  1    25.100    240
            1  0  0  1    18.100    241
            0  1  0  1    18.100    242
            0  0  1  1    18.100    243
            1  0  0  2    17.900    244
            0  1  0  2    17.900    245
            0  0  1  2    17.900    246
            1  0  0  2    12.300    247
            0  1  0  2    12.300    248
            0  0  1  2    12.300    249
            1  0  0  3     8.650    250
            0  1  0  3     8.650    251
            0  0  1  3     8.650    252
            1  0  0  3     6.000    253
            0  1  0  3     6.000    254
            0  0  1  3     6.000    255
            1  0  0  4     4.450    256
            0  1  0  4     4.450    257
            0  0  1  4     4.450    258
            1  0  0  4     3.000    259
            0  1  0  4     3.000    260
            0  0  1  4     3.000    261
            1  0  0  4     2.100    262
            0  1  0  4     2.100    263
            0  0  1  4     2.100    264
            2  0  0  0    33.250    265
            1  1  0  0    33.250    266
            1  0  1  0    33.250    267
            0  2  0  0    33.250    268
            0  1  1  0    33.250    269
            0  0  2  0    33.250    270
            2  0  0  0    22.050    271
            1  1  0  0    22.050    272
            1  0  1  0    22.050    273
            0  2  0  0    22.050    274
            0  1  1  0    22.050    275
            0  0  2  0    22.050    276
            2  0  0  1    15.250    277
            1  1  0  1    15.250    278
            1  0  1  1    15.250    279
            0  2  0  1    15.250    280
            0  1  1  1    15.250    281
            0  0  2  1    15.250    282
            2  0  0  1    10.550    283
            1  1  0  1    10.550    284
            1  0  1  1    10.550    285
            0  2  0  1    10.550    286
            0  1  1  1    10.550    287
            0  0  2  1    10.550    288
            2  0  0  2     7.250    289
            1  1  0  2     7.250    290
            1  0  1  2     7.250    291
            0  2  0  2     7.250    292
            0  1  1  2     7.250    293
            0  0  2  2     7.250    294
            2  0  0  2     4.650    295
            1  1  0  2     4.650    296
            1  0  1  2     4.650    297
            0  2  0  2     4.650    298
            0  1  1  2     4.650    299
            0  0  2  2     4.650    300
            2  0  0  3     2.900    301
            1  1  0  3     2.900    302
            1  0  1  3     2.900    303
            0  2  0  3     2.900    304
            0  1  1  3     2.900    305
            0  0  2  3     2.900    306
            2  0  0  3     1.600    307
            1  1  0  3     1.600    308
            1  0  1  3     1.600    309
            0  2  0  3     1.600    310
            0  1  1  3     1.600    311
            0  0  2  3     1.600    312
            2  0  0  3     0.880    313
            1  1  0  3     0.880    314
            1  0  1  3     0.880    315
            0  2  0  3     0.880    316
            0  1  1  3     0.880    317
            0  0  2  3     0.880    318
            3  0  0  0    17.450    319
            2  1  0  0    17.450    320
            2  0  1  0    17.450    321
            1  2  0  0    17.450    322
            1  1  1  0    17.450    323
            1  0  2  0    17.450    324
            0  3  0  0    17.450    325
            0  2  1  0    17.450    326
            0  1  2  0    17.450    327
            0  0  3  0    17.450    328
            3  0  0  0     9.600    329
            2  1  0  0     9.600    330
            2  0  1  0     9.600    331
            1  2  0  0     9.600    332
            1  1  1  0     9.600    333
            1  0  2  0     9.600    334
            0  3  0  0     9.600    335
            0  2  1  0     9.600    336
            0  1  2  0     9.600    337
            0  0  3  0     9.600    338
            3  0  0  1     5.800    339
            2  1  0  1     5.800    340
            2  0  1  1     5.800    341
            1  2  0  1     5.800    342
            1  1  1  1     5.800    343
            1  0  2  1     5.800    344
            0  3  0  1     5.800    345
            0  2  1  1     5.800    346
            0  1  2  1     5.800    347
            0  0  3  1     5.800    348
            3  0  0  1     3.000    349
            2  1  0  1     3.000    350
            2  0  1  1     3.000    351
            1  2  0  1     3.000    352
            1  1  1  1     3.000    353
            1  0  2  1     3.000    354
            0  3  0  1     3.000    355
            0  2  1  1     3.000    356
            0  1  2  1     3.000    357
            0  0  3  1     3.000    358
            3  0  0  1     1.390    359
            2  1  0  1     1.390    360
            2  0  1  1     1.390    361
            1  2  0  1     1.390    362
            1  1  1  1     1.390    363
            1  0  2  1     1.390    364
            0  3  0  1     1.390    365
            0  2  1  1     1.390    366
            0  1  2  1     1.390    367
            0  0  3  1     1.390    368
            1  0  0  5     1.550    369
            0  1  0  5     1.550    370
            0  0  1  5     1.550    371

 Total number of charge fitting functions (nprimf)       989
 Total number of Cartesian basis functions (naos)        371
 Total number of Cartesian core functions  (ncos)          0

1
 ***************************************************************************************************



                                              ***********************
                                              *  T E C H N I C A L  *
                                              ***********************
  



 =============================================================
 P A R A L L E L I Z A T I O N  and  V E C T O R I Z A T I O N
 =============================================================
  
 Nr of parallel processes:                                8
 Maximum vector length in NumInt loops:                 128



 =====================
 S C F   U P D A T E S
 =====================
  
 Max. nr. of cycles:                               300
 Convergence criterion:                              0.0000010000
   secondary criterion:                              0.0010000000

 Mix parameter (when DIIS does not apply):           0.2000000000
 Mixed ADIIS+SDIIS will be used                  
    Max number of expansion vectors:                10
    Pure ADIIS when Max([F,P]) is above              0.1000000000
    Pure SDIIS when Max([F,P]) is below              0.0010000000
 Automatic ElectronSmearing (in case of problematic SCF convergence) disabled



 =================
 P R E C I S I O N  ***  (General: NumInt, NeglectFunctionTails, ...)  ***
 =================
  

 NumInt:           Target precision:                 6.0000000000
 -------           Initial precision:                6.0000000000
                   Min. precision (optimization):    6.0000000000

 Neglect Functions:          Basis functions:        0.1000000000E-15
 ------------------          Fit functions:          0.1000000000E-15



 ===========================
 L I N E A R   S C A L I N G
 ===========================
  

 Cut-off radii density fit:                        0.1000000000E-09
 Overlap cut-off criterion AO matrix elements:     0.1000000000E-07
 Cut-offs for Coulomb potential and fitted density:0.1000000000E-09
 Cut-off criterion for Coulomb multipole terms:    0.1000000000E-09
 Progressive Convergence parameter:                 0.000000000    
1
 ***************************************************************************************************



                                            ***************************
                                            *  C O M P U T A T I O N  *
                                            ***************************
  



 ==============================
 Double group spinor symmetries  ***  (Spin-Orbit)  ***
 ==============================
  

 The double group Lowdins are spinors adapted to the irreducible representations
 of the double group. These double group Lowdins are linear combinations of
 products of the single group Lowdins and the spinfunctions. The single group
 Lowdins are  orthonormalized symmetrized fragment orbitals (SFOs).
 The complex coefficients that are used in the linear combinations are also
 known as Clebsch-Gordan coefficients.
 The spin functions (alpha,beta) span irrep e1/2


          A * e 1/2 :      A1/2

  A1/2:1 = A.alpha
  A1/2:1 = A.beta

 The table summarizes which one-electron orbital irreps (single group) couple
 with spin to which spinor irreps (double group).
 The Clebsch-Gordan series for each direct product: orbital irrep times e1/2.
                  A
            -------
  A1/2           X


 dimension (equal to the max. nr. of electrons per spinor) of the double group irreps
 ------------------------------------------------------------------------------------
  A1/2           1

 Number of elements of the density matrix on this node (used, total):     12720     69006



 ===========================================
 Numerical Integration : Fuzzy Cells (Becke)
 ===========================================
  
 Becke grid quality: GOOD           
  
 Lebedev angular grid order:             min:  11 max:  35
 Nr. of radial points:                   min:  58 max: 207

 Total nr. of points:     147520
 Nr. of blocks:             1153
 Block length:               128
 Nr. of dummy points:         64


 Test of Precision of the Numerical Integration Grid
 ===================================================

 Integral of the Total Core Density:                   0.00000000000000



 ========================
 Density Fitting (zlmFit)
 ========================
  
 ZlmFit Fit Quality: GOOD           
  
 Max L-expansion:                        min:   9 max:  10
 Nr. of radial interpolation points:     min: 108 max: 300



 ======================
 RI Hartree-Fock Scheme
 ======================
  
 Fit Set Quality     : GOOD
 Integration Quality : GOOD
 Threshold Quality   : GOOD
 Response Quality    : DEFAULT
 Is Range Separated  :  T
 Type of Range Separation : 
 Long-Range: Erf potential                                                      
                                                                                
   
 Asymptotic Coulomb       :   0.650000000000000     
 
 RIHartreeFock Dependency: number of modified vectors:           4



 =====
 S C F  ***  ScaSCF  ***
 =====
  
 Initial density matrix is calculated as sum of fragments

 CYCLE    1
 SCF Error: norm([F,P])=   1407.995782004787, max([F,P])=    320.572510512301
 orbitals (Q,E):
 ---------------
 A1/2 :169...188     ( 1.00    -0.4192)  ( 1.00    -0.4192)  ( 1.00    -0.4180)  ( 1.00    -0.4180)
                     ( 1.00    -0.4063)  ( 1.00    -0.4063)  ( 1.00    -0.4015)  ( 1.00    -0.4015)
                     ( 1.00    -0.3646)  ( 1.00    -0.3646)  ( 0.00    -0.0956)  ( 0.00    -0.0956)
                     ( 0.00    -0.0877)  ( 0.00    -0.0877)  ( 0.00    -0.0696)  ( 0.00    -0.0696)
                     ( 0.00    -0.0617)  ( 0.00    -0.0617)  ( 0.00    -0.0478)  ( 0.00    -0.0478)

 CYCLE    2
   MIX coefficients:  0.8000  0.2000
 SCF Error: norm([F,P])=      2.904610838915, max([F,P])=      0.515677499076
 orbitals (Q,E):
 ---------------
 A1/2 :169...188     ( 1.00    -0.3405)  ( 1.00    -0.3405)  ( 1.00    -0.3366)  ( 1.00    -0.3366)
                     ( 1.00    -0.3357)  ( 1.00    -0.3357)  ( 1.00    -0.3261)  ( 1.00    -0.3261)
                     ( 1.00    -0.3067)  ( 1.00    -0.3067)  ( 0.00    -0.1213)  ( 0.00    -0.1213)
                     ( 0.00    -0.1160)  ( 0.00    -0.1160)  ( 0.00    -0.0944)  ( 0.00    -0.0944)
                     ( 0.00    -0.0869)  ( 0.00    -0.0869)  ( 0.00    -0.0585)  ( 0.00    -0.0585)

 CYCLE    3
  SDIIS (wt  0.000): -0.9859  1.9859
 A-DIIS (wt  1.000):  0.0000  1.0000
  DIIS coefficients:  0.0000  1.0000
 SCF Error: norm([F,P])=      2.018695757437, max([F,P])=      0.410684951843
 orbitals (Q,E):
 ---------------
 A1/2 :169...188     ( 1.00    -0.0399)  ( 1.00    -0.0399)  ( 1.00    -0.0373)  ( 1.00    -0.0373)
                     ( 1.00    -0.0230)  ( 1.00    -0.0230)  ( 1.00    -0.0131)  ( 1.00    -0.0131)
                     ( 1.00    -0.0119)  ( 1.00    -0.0119)  ( 0.00     0.1062)  ( 0.00     0.1062)
                     ( 0.00     0.1105)  ( 0.00     0.1105)  ( 0.00     0.1340)  ( 0.00     0.1340)
                     ( 0.00     0.1354)  ( 0.00     0.1354)  ( 0.00     0.2336)  ( 0.00     0.2336)

 CYCLE    4
  SDIIS (wt  0.000):  0.5580 -0.1813  0.6232
 A-DIIS (wt  1.000):  0.0000  0.8570  0.1430
  DIIS coefficients:  0.0000  0.8570  0.1430
 SCF Error: norm([F,P])=      2.292454189372, max([F,P])=      0.296033947117
 orbitals (Q,E):
 ---------------
 A1/2 :169...188     ( 1.00    -0.0378)  ( 1.00    -0.0378)  ( 1.00    -0.0272)  ( 1.00    -0.0272)
                     ( 1.00    -0.0270)  ( 1.00    -0.0270)  ( 1.00    -0.0256)  ( 1.00    -0.0256)
                     ( 1.00    -0.0246)  ( 1.00    -0.0246)  ( 0.00     0.2269)  ( 0.00     0.2269)
                     ( 0.00     0.2369)  ( 0.00     0.2369)  ( 0.00     0.2572)  ( 0.00     0.2572)
[...]
           virt: -0.0936+0.0565i 181 a1/2:1      0.7384+0.1833i 182 a1/2:1      0.1977+0.1099i 179 a1/2:1      0.3528+0.2433i 180 a1/2:1      0.0219-0.0261i 184 a1/2:1      0.3591+0.2103i 183 a1/2:1   


     9: 176 a1/2   -> 183 a1/2      0.1924
     9: 175 a1/2   -> 184 a1/2      0.1924
     9: 154 a1/2   -> 183 a1/2      0.1166
     9: 153 a1/2   -> 184 a1/2      0.1166
     9: 176 a1/2   -> 184 a1/2      0.0631
     9: 175 a1/2   -> 183 a1/2      0.0631
     9: 154 a1/2   -> 184 a1/2      0.0552
     9: 153 a1/2   -> 183 a1/2      0.0552
     9: 176 a1/2   -> 180 a1/2      0.0121
     9: 175 a1/2   -> 179 a1/2      0.0121
     9: 176 a1/2   -> 186 a1/2      0.0111
     9: 175 a1/2   -> 185 a1/2      0.0111
     9: 153 a1/2   -> 185 a1/2      0.0093
     9: 154 a1/2   -> 186 a1/2      0.0093
     9: 150 a1/2   -> 184 a1/2      0.0068
     9: 149 a1/2   -> 183 a1/2      0.0068
     9: 161 a1/2   -> 184 a1/2      0.0048
     9: 162 a1/2   -> 183 a1/2      0.0048
     9: 154 a1/2   -> 180 a1/2      0.0043
     9: 153 a1/2   -> 179 a1/2      0.0043
  
          NTO weight: 0.4743
            occ:  0.0599+0.6738i 176 a1/2:1      0.2529+0.2558i 175 a1/2:1     -0.5676+0.0734i 154 a1/2:1     -0.1761-0.1778i 153 a1/2:1     -0.0686-0.0697i 150 a1/2:1      0.0496+0.0360i 149 a1/2:1      0.0578+0.0587i 161 a1/2:1     -0.0516 0.0000i 162 a1/2:1   
           virt:  0.1265-0.5157i 183 a1/2:1      0.6809-0.4133i 184 a1/2:1     -0.0838-0.0805i 180 a1/2:1      0.1582-0.0723i 179 a1/2:1      0.0306+0.0426i 186 a1/2:1      0.0608+0.1830i 185 a1/2:1   
          NTO weight: 0.4743
            occ:  0.0302+0.3584i 176 a1/2:1     -0.4734-0.4832i 175 a1/2:1     -0.2483+0.0307i 154 a1/2:1      0.4005+0.4089i 153 a1/2:1      0.0430+0.0437i 150 a1/2:1      0.0791+0.0575i 149 a1/2:1     -0.0362-0.0368i 161 a1/2:1     -0.0824 0.0000i 162 a1/2:1   
           virt: -0.4557+0.2595i 183 a1/2:1     -0.5892+0.5496i 184 a1/2:1     -0.0277-0.0255i 180 a1/2:1     -0.1642+0.0741i 179 a1/2:1      0.0153+0.0166i 186 a1/2:1     -0.0632-0.1936i 185 a1/2:1   


    10: 176 a1/2   -> 183 a1/2      0.2386
    10: 175 a1/2   -> 184 a1/2      0.2386
    10: 153 a1/2   -> 184 a1/2      0.1581
    10: 154 a1/2   -> 183 a1/2      0.1581
    10: 175 a1/2   -> 185 a1/2      0.0276
    10: 176 a1/2   -> 186 a1/2      0.0276
    10: 154 a1/2   -> 186 a1/2      0.0192
    10: 153 a1/2   -> 185 a1/2      0.0192
    10: 176 a1/2   -> 180 a1/2      0.0122
    10: 175 a1/2   -> 179 a1/2      0.0122
    10: 149 a1/2   -> 183 a1/2      0.0085
    10: 150 a1/2   -> 184 a1/2      0.0085
    10: 161 a1/2   -> 184 a1/2      0.0059
    10: 162 a1/2   -> 183 a1/2      0.0059
    10: 153 a1/2   -> 179 a1/2      0.0040
    10: 154 a1/2   -> 180 a1/2      0.0040
    10: 141 a1/2   -> 183 a1/2      0.0034
    10: 142 a1/2   -> 184 a1/2      0.0034
    10: 176 a1/2   -> 179 a1/2      0.0026
    10: 175 a1/2   -> 180 a1/2      0.0026
  
          NTO weight: 0.4764
            occ:  0.6373+0.4021i 176 a1/2:1      0.1433+0.0009i 175 a1/2:1     -0.1234+0.0003i 153 a1/2:1     -0.3012+0.5225i 154 a1/2:1      0.1170-0.0354i 149 a1/2:1     -0.0239-0.0001i 150 a1/2:1      0.0200+0.0001i 161 a1/2:1     -0.0618+0.0814i 162 a1/2:1      0.0739+0.0231i 141 a1/2:1      0.0152+0.0000i 142 a1/2:1   
           virt:  0.0579+0.6267i 183 a1/2:1      0.6133+0.1415i 184 a1/2:1      0.1172-0.1721i 185 a1/2:1     -0.0128+0.2159i 186 a1/2:1     -0.0292+0.2216i 180 a1/2:1      0.0742+0.2493i 179 a1/2:1   
          NTO weight: 0.4764
            occ:  0.1215+0.0760i 176 a1/2:1     -0.7536-0.0020i 175 a1/2:1      0.6031+0.0018i 153 a1/2:1     -0.0622+0.1065i 154 a1/2:1      0.0229-0.0069i 149 a1/2:1      0.1223+0.0003i 150 a1/2:1     -0.1023-0.0003i 161 a1/2:1     -0.0121+0.0159i 162 a1/2:1      0.0145+0.0045i 141 a1/2:1     -0.0774 0.0000i 142 a1/2:1   
           virt:  0.0030+0.0294i 183 a1/2:1     -0.9084-0.2096i 184 a1/2:1     -0.1735+0.2548i 185 a1/2:1     -0.0008+0.0101i 186 a1/2:1      0.0556+0.0246i 180 a1/2:1     -0.1602-0.0738i 179 a1/2:1   


    11: 176 a1/2   -> 185 a1/2      0.2015
    11: 175 a1/2   -> 186 a1/2      0.2014
    11: 153 a1/2   -> 186 a1/2      0.1139
    11: 154 a1/2   -> 185 a1/2      0.1136
    11: 176 a1/2   -> 186 a1/2      0.0801
    11: 175 a1/2   -> 185 a1/2      0.0772
    11: 153 a1/2   -> 185 a1/2      0.0655
    11: 154 a1/2   -> 186 a1/2      0.0614
    11: 150 a1/2   -> 186 a1/2      0.0070
    11: 149 a1/2   -> 185 a1/2      0.0069
    11: 162 a1/2   -> 185 a1/2      0.0045
    11: 161 a1/2   -> 186 a1/2      0.0043
    11: 176 a1/2   -> 183 a1/2      0.0035
    11: 150 a1/2   -> 185 a1/2      0.0034
    11: 175 a1/2   -> 184 a1/2      0.0033
    11: 149 a1/2   -> 186 a1/2      0.0031
    11: 153 a1/2   -> 184 a1/2      0.0030
    11: 170 a1/2   -> 184 a1/2      0.0029
    11: 169 a1/2   -> 183 a1/2      0.0028
    11: 154 a1/2   -> 183 a1/2      0.0028
  
          NTO weight: 0.4790
            occ:  0.3402+0.2805i 176 a1/2:1     -0.6258-0.0150i 175 a1/2:1      0.5342+0.0149i 153 a1/2:1     -0.1888+0.2484i 154 a1/2:1      0.1241+0.0039i 150 a1/2:1      0.0778-0.0128i 149 a1/2:1     -0.0627+0.0623i 162 a1/2:1     -0.0368-0.0015i 161 a1/2:1     -0.0071+0.0018i 170 a1/2:1      0.0048+0.0000i 169 a1/2:1   
           virt:  0.2248-0.5465i 185 a1/2:1      0.7565-0.2566i 186 a1/2:1      0.0057+0.0156i 183 a1/2:1     -0.1086+0.0256i 184 a1/2:1   
          NTO weight: 0.4770
            occ: -0.4890-0.4044i 176 a1/2:1     -0.4443-0.0111i 175 a1/2:1      0.3088+0.0080i 153 a1/2:1      0.3162-0.4183i 154 a1/2:1      0.0777+0.0019i 150 a1/2:1     -0.1180+0.0206i 149 a1/2:1      0.0258-0.0271i 162 a1/2:1     -0.0873-0.0011i 161 a1/2:1     -0.0047+0.0012i 170 a1/2:1     -0.0074 0.0000i 169 a1/2:1   
           virt: -0.1919-0.5139i 185 a1/2:1      0.8262-0.0634i 186 a1/2:1     -0.0067-0.0252i 183 a1/2:1     -0.1057+0.0250i 184 a1/2:1   


    12: 175 a1/2   -> 186 a1/2      0.2839
    12: 176 a1/2   -> 185 a1/2      0.2837
    12: 153 a1/2   -> 186 a1/2      0.1737
    12: 154 a1/2   -> 185 a1/2      0.1736
    12: 150 a1/2   -> 186 a1/2      0.0099
    12: 149 a1/2   -> 185 a1/2      0.0099
    12: 161 a1/2   -> 186 a1/2      0.0050
    12: 162 a1/2   -> 185 a1/2      0.0050
    12: 175 a1/2   -> 183 a1/2      0.0037
    12: 176 a1/2   -> 184 a1/2      0.0037
    12: 170 a1/2   -> 184 a1/2      0.0033
    12: 169 a1/2   -> 183 a1/2      0.0033
    12: 142 a1/2   -> 186 a1/2      0.0033
    12: 141 a1/2   -> 185 a1/2      0.0033
    12: 153 a1/2   -> 183 a1/2      0.0028
    12: 154 a1/2   -> 184 a1/2      0.0028
    12: 154 a1/2   -> 186 a1/2      0.0024
    12: 153 a1/2   -> 185 a1/2      0.0024
    12: 166 a1/2   -> 186 a1/2      0.0014
    12: 165 a1/2   -> 185 a1/2      0.0014
  
          NTO weight: 0.4860
            occ: -0.7641+0.0351i 175 a1/2:1     -0.0642-0.0525i 176 a1/2:1      0.5909-0.0275i 153 a1/2:1      0.0785-0.1095i 154 a1/2:1      0.1411-0.0065i 150 a1/2:1     -0.0150+0.0026i 149 a1/2:1     -0.1001+0.0046i 161 a1/2:1      0.0075-0.0077i 162 a1/2:1     -0.0014+0.0004i 170 a1/2:1      0.0092-0.0004i 169 a1/2:1     -0.0810+0.0040i 142 a1/2:1     -0.0079-0.0036i 141 a1/2:1      0.0534+0.0042i 166 a1/2:1     -0.0058 0.0000i 165 a1/2:1   
           virt: -0.9711+0.2027i 186 a1/2:1      0.0252-0.0467i 185 a1/2:1      0.1115-0.0257i 183 a1/2:1     -0.0019-0.0025i 184 a1/2:1   
          NTO weight: 0.4855
            occ:  0.0829-0.0038i 175 a1/2:1     -0.5919-0.4845i 176 a1/2:1     -0.1346+0.0029i 153 a1/2:1      0.3566-0.4720i 154 a1/2:1     -0.0152+0.0007i 150 a1/2:1     -0.1393+0.0239i 149 a1/2:1      0.0108-0.0005i 161 a1/2:1      0.0699-0.0718i 162 a1/2:1     -0.0089+0.0025i 170 a1/2:1     -0.0014+0.0000i 169 a1/2:1      0.0087-0.0004i 142 a1/2:1     -0.0738-0.0336i 141 a1/2:1     -0.0058-0.0004i 166 a1/2:1     -0.0535 0.0000i 165 a1/2:1   
           virt:  0.5795+0.0392i 186 a1/2:1     -0.8076+0.0161i 185 a1/2:1     -0.0611+0.0132i 183 a1/2:1      0.0173+0.0768i 184 a1/2:1   


    13: 176 a1/2   -> 186 a1/2      0.1834
    13: 175 a1/2   -> 185 a1/2      0.1834
    13: 154 a1/2   -> 186 a1/2      0.0848
    13: 153 a1/2   -> 185 a1/2      0.0848
    13: 176 a1/2   -> 185 a1/2      0.0781
    13: 175 a1/2   -> 186 a1/2      0.0781
    13: 153 a1/2   -> 186 a1/2      0.0516
    13: 154 a1/2   -> 185 a1/2      0.0516
    13: 175 a1/2   -> 179 a1/2      0.0199
    13: 176 a1/2   -> 180 a1/2      0.0199
    13: 175 a1/2   -> 184 a1/2      0.0199
    13: 176 a1/2   -> 183 a1/2      0.0199
    13: 154 a1/2   -> 183 a1/2      0.0091
    13: 153 a1/2   -> 184 a1/2      0.0091
    13: 175 a1/2   -> 183 a1/2      0.0073
    13: 176 a1/2   -> 184 a1/2      0.0073
    13: 162 a1/2   -> 186 a1/2      0.0053
    13: 161 a1/2   -> 185 a1/2      0.0053
    13: 153 a1/2   -> 183 a1/2      0.0049
    13: 154 a1/2   -> 184 a1/2      0.0049
  
          NTO weight: 0.4569
            occ: -0.5117+0.4412i 176 a1/2:1      0.1591-0.4342i 175 a1/2:1     -0.3026-0.3171i 154 a1/2:1     -0.1162+0.3374i 153 a1/2:1     -0.0543-0.0848i 162 a1/2:1      0.0086+0.0000i 161 a1/2:1   
           virt:  0.5202-0.4000i 186 a1/2:1      0.5762+0.2879i 185 a1/2:1      0.0889-0.1139i 179 a1/2:1     -0.2110-0.0049i 180 a1/2:1      0.0239-0.2101i 184 a1/2:1     -0.1693+0.1257i 183 a1/2:1   
          NTO weight: 0.4569
            occ: -0.3911-0.2468i 176 a1/2:1     -0.6746-0.0371i 175 a1/2:1      0.1844-0.3056i 154 a1/2:1      0.4373+0.0288i 153 a1/2:1     -0.0046-0.0072i 162 a1/2:1     -0.1007 0.0000i 161 a1/2:1   
           virt: -0.4813+0.1103i 186 a1/2:1      0.4354-0.6601i 185 a1/2:1     -0.1601-0.0614i 179 a1/2:1     -0.0316-0.1130i 180 a1/2:1     -0.2492-0.0523i 184 a1/2:1      0.1451-0.0423i 183 a1/2:1   


    14: 176 a1/2   -> 186 a1/2      0.2735
    14: 175 a1/2   -> 185 a1/2      0.2733
    14: 153 a1/2   -> 185 a1/2      0.1393
    14: 154 a1/2   -> 186 a1/2      0.1393
    14: 175 a1/2   -> 179 a1/2      0.0257
    14: 176 a1/2   -> 180 a1/2      0.0257
    14: 175 a1/2   -> 183 a1/2      0.0120
    14: 176 a1/2   -> 184 a1/2      0.0118
    14: 162 a1/2   -> 186 a1/2      0.0069
    14: 161 a1/2   -> 185 a1/2      0.0069
    14: 153 a1/2   -> 183 a1/2      0.0064
    14: 154 a1/2   -> 184 a1/2      0.0063
    14: 149 a1/2   -> 186 a1/2      0.0059
    14: 150 a1/2   -> 185 a1/2      0.0059
    14: 154 a1/2   -> 180 a1/2      0.0050
    14: 153 a1/2   -> 179 a1/2      0.0050
    14: 153 a1/2   -> 186 a1/2      0.0030
    14: 154 a1/2   -> 185 a1/2      0.0030
    14: 141 a1/2   -> 186 a1/2      0.0023
    14: 142 a1/2   -> 185 a1/2      0.0023
  
          NTO weight: 0.4770
            occ:  0.2980+0.2390i 176 a1/2:1     -0.7104-0.0036i 175 a1/2:1      0.5297+0.0021i 153 a1/2:1     -0.1182+0.1617i 154 a1/2:1     -0.0378+0.0396i 162 a1/2:1     -0.1007-0.0005i 161 a1/2:1      0.0498-0.0091i 149 a1/2:1      0.0932+0.0005i 150 a1/2:1      0.0288+0.0128i 141 a1/2:1     -0.0579 0.0000i 142 a1/2:1   
           virt:  0.1060+0.1752i 186 a1/2:1      0.2460-0.8935i 185 a1/2:1      0.2353+0.0339i 179 a1/2:1      0.0223+0.0703i 180 a1/2:1      0.1864-0.0285i 183 a1/2:1     -0.0111-0.0387i 184 a1/2:1   
          NTO weight: 0.4768
            occ: -0.5542-0.4447i 176 a1/2:1     -0.3821-0.0020i 175 a1/2:1      0.2002+0.0021i 153 a1/2:1      0.3152-0.4254i 154 a1/2:1      0.0696-0.0729i 162 a1/2:1     -0.0547-0.0003i 161 a1/2:1     -0.0917+0.0167i 149 a1/2:1      0.0506+0.0003i 150 a1/2:1     -0.0530-0.0236i 141 a1/2:1     -0.0315 0.0000i 142 a1/2:1   
           virt: -0.1117-0.4650i 186 a1/2:1      0.1222-0.7892i 185 a1/2:1      0.2149+0.0312i 179 a1/2:1     -0.0637-0.2103i 180 a1/2:1      0.1646-0.0248i 183 a1/2:1      0.0240+0.0990i 184 a1/2:1   


    15: 176 a1/2   -> 184 a1/2      0.1798
    15: 175 a1/2   -> 183 a1/2      0.1552
    15: 154 a1/2   -> 184 a1/2      0.0768
    15: 153 a1/2   -> 183 a1/2      0.0654
    15: 175 a1/2   -> 184 a1/2      0.0653
    15: 176 a1/2   -> 183 a1/2      0.0646
    15: 175 a1/2   -> 182 a1/2      0.0581
    15: 176 a1/2   -> 181 a1/2      0.0497
    15: 153 a1/2   -> 184 a1/2      0.0400
    15: 154 a1/2   -> 183 a1/2      0.0389
    15: 176 a1/2   -> 182 a1/2      0.0169
    15: 175 a1/2   -> 181 a1/2      0.0166
    15: 153 a1/2   -> 182 a1/2      0.0129
    15: 154 a1/2   -> 181 a1/2      0.0109
    15: 176 a1/2   -> 179 a1/2      0.0067
    15: 175 a1/2   -> 180 a1/2      0.0066
    15: 149 a1/2   -> 179 a1/2      0.0062
    15: 154 a1/2   -> 182 a1/2      0.0056
    15: 176 a1/2   -> 186 a1/2      0.0056
    15: 150 a1/2   -> 180 a1/2      0.0056
  
          NTO weight: 0.4500
            occ:  0.6650-0.5223i 176 a1/2:1     -0.0033+0.0000i 175 a1/2:1      0.3461+0.4061i 154 a1/2:1      0.0040-0.0069i 153 a1/2:1     -0.0005+0.0122i 149 a1/2:1   
           virt:  0.7099-0.0963i 184 a1/2:1      0.3614-0.0385i 183 a1/2:1      0.2165-0.0832i 182 a1/2:1     -0.4458+0.0548i 181 a1/2:1     -0.2317-0.0177i 179 a1/2:1      0.0009-0.0002i 180 a1/2:1      0.2092-0.0376i 186 a1/2:1   
          NTO weight: 0.4120
            occ: -0.0090-0.0116i 176 a1/2:1      0.8526-0.0060i 175 a1/2:1     -0.0170+0.0263i 154 a1/2:1     -0.5212+0.0035i 153 a1/2:1      0.0127+0.0000i 150 a1/2:1   
           virt: -0.5014+0.0786i 184 a1/2:1      0.7091-0.1675i 183 a1/2:1      0.3645-0.1919i 182 a1/2:1      0.1714-0.0239i 181 a1/2:1     -0.0002+0.0019i 179 a1/2:1     -0.1071+0.0212i 180 a1/2:1     -0.0003-0.0017i 186 a1/2:1   
          NTO weight: 0.0112
            occ:  0.1498+0.1218i 176 a1/2:1     -0.3982+0.0028i 175 a1/2:1      0.1817-0.2417i 154 a1/2:1     -0.6853+0.0046i 153 a1/2:1     -0.2434+0.0444i 149 a1/2:1     -0.4265 0.0000i 150 a1/2:1   
           virt:  0.1562+0.6616i 184 a1/2:1      0.2813+0.3962i 183 a1/2:1      0.0598+0.1899i 182 a1/2:1     -0.3384-0.2471i 181 a1/2:1     -0.0876-0.0429i 179 a1/2:1      0.2660-0.0507i 180 a1/2:1      0.0238+0.0562i 186 a1/2:1   


    16: 169 a1/2   -> 179 a1/2      0.4271
    16: 170 a1/2   -> 180 a1/2      0.4125
    16: 169 a1/2   -> 180 a1/2      0.0276
    16: 170 a1/2   -> 179 a1/2      0.0261
    16: 151 a1/2   -> 179 a1/2      0.0216
    16: 152 a1/2   -> 180 a1/2      0.0204
    16: 166 a1/2   -> 179 a1/2      0.0104
    16: 165 a1/2   -> 180 a1/2      0.0103
    16: 168 a1/2   -> 179 a1/2      0.0020
    16: 176 a1/2   -> 182 a1/2      0.0020
    16: 167 a1/2   -> 180 a1/2      0.0019
    16: 175 a1/2   -> 181 a1/2      0.0018
    16: 169 a1/2   -> 181 a1/2      0.0018
    16: 139 a1/2   -> 179 a1/2      0.0015
    16: 140 a1/2   -> 180 a1/2      0.0015
    16: 170 a1/2   -> 182 a1/2      0.0014
    16: 176 a1/2   -> 184 a1/2      0.0013
    16: 163 a1/2   -> 179 a1/2      0.0013
    16: 175 a1/2   -> 183 a1/2      0.0012
    16: 164 a1/2   -> 180 a1/2      0.0011
  
          NTO weight: 0.4932
            occ: -0.4409+0.8536i 169 a1/2:1     -0.0416+0.0335i 170 a1/2:1     -0.0624+0.1900i 151 a1/2:1      0.0324-0.0487i 152 a1/2:1      0.0772-0.1153i 166 a1/2:1      0.0231-0.0345i 165 a1/2:1     -0.0272+0.0543i 168 a1/2:1      0.0111-0.0139i 167 a1/2:1      0.0015-0.0032i 175 a1/2:1     -0.0172+0.0506i 139 a1/2:1      0.0085-0.0131i 140 a1/2:1      0.0222-0.0432i 163 a1/2:1      0.0138+0.0000i 164 a1/2:1   
           virt:  0.1884-0.9345i 179 a1/2:1      0.0073+0.2961i 180 a1/2:1      0.0006+0.0028i 182 a1/2:1      0.0011+0.0584i 181 a1/2:1   
          NTO weight: 0.4751
            occ:  0.0063+0.0523i 169 a1/2:1      0.2882-0.9165i 170 a1/2:1     -0.0191+0.0582i 151 a1/2:1     -0.1098+0.1651i 152 a1/2:1      0.0236-0.0353i 166 a1/2:1     -0.0783+0.1170i 165 a1/2:1     -0.0083+0.0166i 168 a1/2:1      0.0032-0.0009i 176 a1/2:1     -0.0377+0.0470i 167 a1/2:1     -0.0053+0.0155i 139 a1/2:1     -0.0288+0.0443i 140 a1/2:1      0.0068-0.0132i 163 a1/2:1     -0.0469 0.0000i 164 a1/2:1   
           virt: -0.0736-0.2902i 179 a1/2:1     -0.4285-0.8509i 180 a1/2:1     -0.0370-0.0369i 182 a1/2:1      0.0019+0.0027i 181 a1/2:1   
 

 All SPIN-POLARIZED excitation energies

 no.     E/a.u.        E/eV      f           tau/s        Symmetry
 ------------------------------------------------------------------
   1:     0.09199      2.50307   0.2256E-11               A           
   2:     0.09199      2.50320   0.3143E-14               A           
   3:     0.09297      2.52976   0.1662E-13               A           
   4:     0.09584      2.60786   0.5112E-10               A           
   5:     0.09985      2.71694   0.1661E-10               A           
   6:     0.10015      2.72533   0.4514E-13               A           
   7:     0.10351      2.81666   0.6780E-10               A           
   8:     0.10394      2.82848   0.1222E-11               A           
   9:     0.11934      3.24750   0.1332E-11               A           
  10:     0.11961      3.25466   0.2924E-11               A           
  11:     0.12622      3.43466   0.1526E-06   0.1280E-01  A           
  12:     0.12641      3.43986   0.1631E-09    11.94      A           
  13:     0.13610      3.70350   0.9587E-12               A           
  14:     0.13654      3.71534   0.2906E-08   0.5745      A           
  15:     0.14232      3.87266   0.1100E-07   0.1397      A           
  16:     0.14315      3.89525   0.2042E-07   0.7438E-01  A           

 tau: electric dipole radiative lifetime (in seconds)

 Unrelaxed approximate excited state dipole moments

 no.       E/eV     Excited state dipole moment (Debye)   Symmetry
 ------------------------------------------------------------------
   1:      2.50307  -113.63419   -73.46981     0.00002    A
   2:      2.50320  -113.63419   -73.46981     0.00002    A
   3:      2.52976  -113.63419   -73.46981     0.00002    A
   4:      2.60786  -113.63419   -73.46982     0.00002    A
   5:      2.71694  -113.63419   -73.46981     0.00002    A
   6:      2.72533  -113.63419   -73.46981     0.00002    A
   7:      2.81666  -113.63419   -73.46981     0.00002    A
   8:      2.82848  -113.63419   -73.46981     0.00002    A
   9:      3.24750  -113.63419   -73.46981     0.00002    A
  10:      3.25466  -113.63419   -73.46981     0.00002    A
  11:      3.43466  -113.63418   -73.46969    -0.00001    A
  12:      3.43986  -113.63419   -73.46982     0.00002    A
  13:      3.70350  -113.63419   -73.46981     0.00002    A
  14:      3.71534  -113.63420   -73.46981     0.00002    A
  15:      3.87266  -113.63413   -73.46979     0.00005    A
  16:      3.89525  -113.63415   -73.46938     0.00002    A


 Normal termination of EXCITATION program part





 =======================================================================
 Electrostatic potential at the Nuclei due to electrons and other nuclei
 =======================================================================
  
         Atom                  Potential
         ----                  ---------
     1)   O                  22.68001290
     2)   Cl                 65.21204736
     3)   Cl                 65.21204737
     4)   Cl                 65.21204739
     5)   Cl                 65.21204740
     6)   O                  22.68001018
     7)   U                 807.93054738
 Mulliken charges used for AMS results%charges...


    =====================
     CALCULATION RESULTS
    =====================

Energy (hartree)           -94.08674532


--------------
Atomic charges
--------------
  Index   Atom    Charge
      1      O   -0.6604
      2     Cl   -0.6185
      3     Cl   -0.6185
      4     Cl   -0.6185
      5     Cl   -0.6185
      6      O   -0.6604
      7      U    1.7948


Dipole moment vector    (Debye):  -113.63419905  -73.46981429    0.00000966
              magnitude (Debye):   135.31646169


AMS application finished. Exiting.
NORMAL TERMINATION
     Total cpu time:   43047.38
  Total system time:    2863.81
 Total elapsed time:   45908.62
