 Entering Gaussian System, Link 0=/home/pcmt/gaussian/g16.C.01/g16/g16
 AtFile(1): /home/vallet/basis/U-ECP60MWB_SEG
 AtFile(1): /home/vallet/basis/U-ECP60MWB
 Initial command:
 /home/pcmt/gaussian/g16.C.01/g16/l1.exe "/state/partition2/vallet/848285.phlam-s-sakura/Gau-88305.inp" -scrdir="/state/partition2/vallet/848285.phlam-s-sakura/"
 Entering Link 1 = /home/pcmt/gaussian/g16.C.01/g16/l1.exe PID=     88306.
  
 Copyright (c) 1988-2019, Gaussian, Inc.  All Rights Reserved.
  
 This is part of the Gaussian(R) 16 program.  It is based on
 the Gaussian(R) 09 system (copyright 2009, Gaussian, Inc.),
 the Gaussian(R) 03 system (copyright 2003, Gaussian, Inc.),
 the Gaussian(R) 98 system (copyright 1998, Gaussian, Inc.),
 the Gaussian(R) 94 system (copyright 1995, Gaussian, Inc.),
 the Gaussian 92(TM) system (copyright 1992, Gaussian, Inc.),
 the Gaussian 90(TM) system (copyright 1990, Gaussian, Inc.),
 the Gaussian 88(TM) system (copyright 1988, Gaussian, Inc.),
 the Gaussian 86(TM) system (copyright 1986, Carnegie Mellon
 University), and the Gaussian 82(TM) system (copyright 1983,
 Carnegie Mellon University). Gaussian is a federally registered
 trademark of Gaussian, Inc.
  
 This software contains proprietary and confidential information,
 including trade secrets, belonging to Gaussian, Inc.
  
 This software is provided under written license and may be
 used, copied, transmitted, or stored only in accord with that
 written license.
  
 The following legend is applicable only to US Government
 contracts under FAR:
  
                    RESTRICTED RIGHTS LEGEND
  
 Use, reproduction and disclosure by the US Government is
 subject to restrictions as set forth in subparagraphs (a)
 and (c) of the Commercial Computer Software - Restricted
 Rights clause in FAR 52.227-19.
  
 Gaussian, Inc.
 340 Quinnipiac St., Bldg. 40, Wallingford CT 06492
  
  
 ---------------------------------------------------------------
 Warning -- This program may not be used in any manner that
 competes with the business of Gaussian, Inc. or will provide
 assistance to any competitor of Gaussian, Inc.  The licensee
 of this program is prohibited from giving any competitor of
 Gaussian, Inc. access to this program.  By using this program,
 the user acknowledges that Gaussian, Inc. is engaged in the
 business of creating and licensing software in the field of
 computational chemistry and represents and warrants to the
 licensee that it is not a competitor of Gaussian, Inc. and that
 it will not use this program in any manner prohibited above.
 ---------------------------------------------------------------
  

 Cite this work as:
 Gaussian 16, Revision C.01,
 M. J. Frisch, G. W. Trucks, H. B. Schlegel, G. E. Scuseria, 
 M. A. Robb, J. R. Cheeseman, G. Scalmani, V. Barone, 
 G. A. Petersson, H. Nakatsuji, X. Li, M. Caricato, A. V. Marenich, 
 J. Bloino, B. G. Janesko, R. Gomperts, B. Mennucci, H. P. Hratchian, 
 J. V. Ortiz, A. F. Izmaylov, J. L. Sonnenberg, D. Williams-Young, 
 F. Ding, F. Lipparini, F. Egidi, J. Goings, B. Peng, A. Petrone, 
 T. Henderson, D. Ranasinghe, V. G. Zakrzewski, J. Gao, N. Rega, 
 G. Zheng, W. Liang, M. Hada, M. Ehara, K. Toyota, R. Fukuda, 
 J. Hasegawa, M. Ishida, T. Nakajima, Y. Honda, O. Kitao, H. Nakai, 
 T. Vreven, K. Throssell, J. A. Montgomery, Jr., J. E. Peralta, 
 F. Ogliaro, M. J. Bearpark, J. J. Heyd, E. N. Brothers, K. N. Kudin, 
 V. N. Staroverov, T. A. Keith, R. Kobayashi, J. Normand, 
 K. Raghavachari, A. P. Rendell, J. C. Burant, S. S. Iyengar, 
 J. Tomasi, M. Cossi, J. M. Millam, M. Klene, C. Adamo, R. Cammi, 
 J. W. Ochterski, R. L. Martin, K. Morokuma, O. Farkas, 
 J. B. Foresman, and D. J. Fox, Gaussian, Inc., Wallingford CT, 2019.
 
 ******************************************
 Gaussian 16:  ES64L-G16RevC.01  3-Jul-2019
                12-Jan-2022 
 ******************************************
 %mem=8000Mb
 %NProc=4
 Will use up to    4 processors via shared memory.
 %chk=gs-uo2_cl2.linear.pbe0-d3.QTAIM.chk
 ----------------------------------------------------------------------
 #p PBE1PBE/GEN GFInput GFPrint 5D 7F IOP(6/7=3, 4/69=2, 6/10=1) Pseudo
 =Read EmpiricalDispersion=GD3BJ Symm=(Loose) Int=(UltraFine) Guess=(Ch
 eckPoint) Geom=CheckPoint Scf=(NoVarAcc,MaxCycle=100,conver=8) Output=
 WFX
 ----------------------------------------------------------------------
 1/29=2,38=1,172=1/1;
 2/12=2,17=4,18=3,40=1/2;
 3/5=7,8=11,11=2,14=-4,16=1,17=8,24=110,25=1,30=1,74=-13,75=-5,116=-2,124=41/1,2,3;
 4/5=1,69=2/1;
 5/5=2,6=8,7=100,38=6/2;
 6/7=3,8=2,9=2,10=1,28=1/1;
 99/5=1,6=200,9=1/99;
 Leave Link    1 at Wed Jan 12 14:56:10 2022, MaxMem=  1048576000 cpu:               5.7 elap:               5.7
 (Enter /home/pcmt/gaussian/g16.C.01/g16/l101.exe)
 ---------------------------
 [UO2Cl4]2- - PBE0+D3BJ - GS
 ---------------------------
 Structure from the checkpoint file:  "gs-uo2_cl2.linear.pbe0-d3.QTAIM.chk"
 Charge =  0 Multiplicity = 1
 Redundant internal coordinates found in file.  (old form).
 U,0,0.,0.0866906808,0.
 O,0,-1.728950101,0.0866917548,0.
 O,0,1.728950101,0.0866917548,0.
 Cl,0,0.,-1.2360774784,-2.1377754735
 Cl,0,0.,-1.2360774784,2.1377754735
 Recover connectivity data from disk.
 ITRead=  0  0  0  0  0
 MicOpt= -1 -1 -1 -1 -1
                           ----------------------------
                           !    Current Parameters    !
                           ! (Angstroms and Degrees)  !
 --------------------------                            --------------------------
 ! Name  Definition              Value                                          !
 --------------------------------------------------------------------------------
 ! R1    R(1,2)                  1.729                                          !
 ! R2    R(1,3)                  1.729                                          !
 ! R3    R(1,4)                  2.5139                                         !
 ! R4    R(1,5)                  2.5139                                         !
 ! A1    A(2,1,4)               90.0                                            !
 ! A2    A(2,1,5)               90.0                                            !
 ! A3    A(3,1,4)               90.0                                            !
 ! A4    A(3,1,5)               90.0                                            !
 ! A5    A(4,1,5)              116.5049                                         !
 ! A6    L(2,1,3,4,-1)         180.0            Frozen                          !
 ! A7    L(2,1,3,4,-2)         179.9999         Frozen                          !
 ! D1    D(2,1,5,4)             90.0                                            !
 ! D2    D(3,1,5,4)            -90.0                                            !
 --------------------------------------------------------------------------------
 NAtoms=      5 NQM=        5 NQMF=       0 NMMI=      0 NMMIF=      0
                NMic=       0 NMicF=      0.
                    Isotopes and Nuclear Properties:
 (Nuclear quadrupole moments (NQMom) in fm**2, nuclear magnetic moments (NMagM)
  in nuclear magnetons)

  Atom         1           2           3           4           5
 IAtWgt=         238          16          16          35          35
 AtmWgt= 238.0508000  15.9949146  15.9949146  34.9688527  34.9688527
 NucSpn=           0           0           0           3           3
 AtZEff=   0.0000000   5.6000000   5.6000000  14.2400000  14.2400000
 NQMom=    0.0000000   0.0000000   0.0000000  -8.1650000  -8.1650000
 NMagM=    0.0000000   0.0000000   0.0000000   0.8218740   0.8218740
 AtZNuc=  92.0000000   8.0000000   8.0000000  17.0000000  17.0000000
 Leave Link  101 at Wed Jan 12 14:57:09 2022, MaxMem=  1048576000 cpu:              52.6 elap:              58.9
 (Enter /home/pcmt/gaussian/g16.C.01/g16/l202.exe)
                          Input orientation:                          
 ---------------------------------------------------------------------
 Center     Atomic      Atomic             Coordinates (Angstroms)
 Number     Number       Type             X           Y           Z
 ---------------------------------------------------------------------
      1         92           0        0.000000    0.086691    0.000000
      2          8           0       -1.728950    0.086692    0.000000
      3          8           0        1.728950    0.086692   -0.000000
      4         17           0       -0.000000   -1.236077   -2.137775
      5         17           0        0.000000   -1.236077    2.137775
 ---------------------------------------------------------------------
                    Distance matrix (angstroms):
                    1          2          3          4          5
     1  U    0.000000
     2  O    1.728950   0.000000
     3  O    1.728950   3.457900   0.000000
     4  Cl   2.513921   3.051077   3.051077   0.000000
     5  Cl   2.513921   3.051077   3.051077   4.275551   0.000000
 Stoichiometry    Cl2O2U
 Framework group  C2V[C2(U),SGV(O2),SGV'(Cl2)]
 Deg. of freedom     4
 Full point group                 C2V     NOp   4
 RotChk:  IX=0 Diff= 2.77D-14
 Largest Abelian subgroup         C2V     NOp   4
 Largest concise Abelian subgroup C2V     NOp   4
                         Standard orientation:                         
 ---------------------------------------------------------------------
 Center     Atomic      Atomic             Coordinates (Angstroms)
 Number     Number       Type             X           Y           Z
 ---------------------------------------------------------------------
      1         92           0        0.000000    0.000000    0.316719
      2          8           0        0.000000    1.728950    0.316720
      3          8           0       -0.000000   -1.728950    0.316720
      4         17           0        2.137775   -0.000000   -1.006049
      5         17           0       -2.137775    0.000000   -1.006049
 ---------------------------------------------------------------------
 Rotational constants (GHZ):           2.6209332           1.2170553           1.2124661
 Leave Link  202 at Wed Jan 12 14:57:09 2022, MaxMem=  1048576000 cpu:               0.1 elap:               0.1
 (Enter /home/pcmt/gaussian/g16.C.01/g16/l301.exe)
 General basis read from cards:  (5D, 7F)
 Centers:       1
 S 3 1.00
     Exponent=  1.2098082000D+04 Coefficients=  1.0200000000D-04
     Exponent=  1.8337573000D+03 Coefficients=  7.7100000000D-04
     Exponent=  3.5168632000D+02 Coefficients=  2.9690000000D-03
 S 1 1.00
     Exponent=  1.0431426000D+02 Coefficients=  1.0000000000D+00
 S 3 1.00
     Exponent=  6.0905822000D+01 Coefficients=  4.9868000000D-02
     Exponent=  3.5515086000D+01 Coefficients= -2.4531300000D-01
     Exponent=  2.0891227000D+01 Coefficients=  7.2384700000D-01
 S 1 1.00
     Exponent=  1.0184647000D+01 Coefficients=  1.0000000000D+00
 S 1 1.00
     Exponent=  2.8518510000D+00 Coefficients=  1.0000000000D+00
 S 1 1.00
     Exponent=  1.5316160000D+00 Coefficients=  1.0000000000D+00
 S 1 1.00
     Exponent=  6.1620300000D-01 Coefficients=  1.0000000000D+00
 S 1 1.00
     Exponent=  2.7949400000D-01 Coefficients=  1.0000000000D+00
 S 1 1.00
     Exponent=  5.7253000000D-02 Coefficients=  1.0000000000D+00
 S 1 1.00
     Exponent=  2.3443000000D-02 Coefficients=  1.0000000000D+00
 P 5 1.00
     Exponent=  2.9068451000D+03 Coefficients=  8.8000000000D-05
     Exponent=  6.9440053000D+02 Coefficients=  7.3200000000D-04
     Exponent=  2.2463479000D+02 Coefficients=  3.4140000000D-03
     Exponent=  8.0520526000D+01 Coefficients=  1.1099000000D-02
     Exponent=  2.4080211000D+01 Coefficients=  2.5216000000D-02
 P 1 1.00
     Exponent=  1.4077580000D+01 Coefficients=  1.0000000000D+00
 P 1 1.00
     Exponent=  8.2658460000D+00 Coefficients=  1.0000000000D+00
 P 1 1.00
     Exponent=  3.4236070000D+00 Coefficients=  1.0000000000D+00
 P 1 1.00
     Exponent=  1.7084170000D+00 Coefficients=  1.0000000000D+00
 P 1 1.00
     Exponent=  6.5504600000D-01 Coefficients=  1.0000000000D+00
 P 1 1.00
     Exponent=  2.8375500000D-01 Coefficients=  1.0000000000D+00
 P 1 1.00
     Exponent=  1.0181400000D-01 Coefficients=  1.0000000000D+00
 P 1 1.00
     Exponent=  3.0535000000D-02 Coefficients=  1.0000000000D+00
 D 6 1.00
     Exponent=  4.4901953000D+02 Coefficients=  5.0000000000D-05
     Exponent=  1.5635695000D+02 Coefficients=  3.2200000000D-04
     Exponent=  6.0242439000D+01 Coefficients=  1.7770000000D-03
     Exponent=  1.7772317000D+01 Coefficients=  2.5385000000D-02
     Exponent=  1.0454304000D+01 Coefficients= -8.9378000000D-02
     Exponent=  3.5834330000D+00 Coefficients=  4.4479900000D-01
 D 1 1.00
     Exponent=  1.7637240000D+00 Coefficients=  1.0000000000D+00
 D 1 1.00
     Exponent=  7.8403000000D-01 Coefficients=  1.0000000000D+00
 D 1 1.00
     Exponent=  2.7612700000D-01 Coefficients=  1.0000000000D+00
 D 1 1.00
     Exponent=  8.6980000000D-02 Coefficients=  1.0000000000D+00
 F 5 1.00
     Exponent=  1.0528793000D+02 Coefficients=  2.2800000000D-04
     Exponent=  3.5101181000D+01 Coefficients=  2.3080000000D-03
     Exponent=  1.4564138000D+01 Coefficients=  9.2530000000D-03
     Exponent=  4.6518850000D+00 Coefficients=  1.3694900000D-01
     Exponent=  2.2559730000D+00 Coefficients=  3.3980100000D-01
 F 1 1.00
     Exponent=  1.0102740000D+00 Coefficients=  1.0000000000D+00
 F 1 1.00
     Exponent=  4.1168000000D-01 Coefficients=  1.0000000000D+00
 F 1 1.00
     Exponent=  1.4412000000D-01 Coefficients=  1.0000000000D+00
 G 4 1.00
     Exponent=  1.0528793000D+02 Coefficients=  1.3700000000D-04
     Exponent=  3.5101181000D+01 Coefficients=  1.8310000000D-03
     Exponent=  1.4564138000D+01 Coefficients=  1.9940000000D-02
     Exponent=  4.6518850000D+00 Coefficients=  1.1075800000D-01
 G 1 1.00
     Exponent=  2.2559730000D+00 Coefficients=  1.0000000000D+00
 G 1 1.00
     Exponent=  1.0102740000D+00 Coefficients=  1.0000000000D+00
 ****
 Centers:       4      5
 Def2TZVP
 ****
 Centers:       2      3
 Def2TZVP
 ****
 ======================================================================================================
                                       Pseudopotential Parameters
 ======================================================================================================
  Center     Atomic      Valence      Angular      Power
  Number     Number     Electrons     Momentum     of R      Exponent        Coefficient   SO-Coeffient
 ======================================================================================================
    1         92           32
                                      H and up 
                                                     2        1.0000000        0.00000000    0.00000000
                                      S - H
                                                     2       16.4140387      536.51662778    0.00000000
                                      P - H
                                                     2        9.0605561      169.54492465    0.00000000
                                      D - H
                                                     2        8.8318320      142.61559837    0.00000000
                                      F - H
                                                     2        7.0185163       60.39307602    0.00000000
                                      G - H
                                                     2       12.8040884      -60.12998958    0.00000000
    2          8
                                   No pseudopotential on this center.
    3          8
                                   No pseudopotential on this center.
    4         17
                                   No pseudopotential on this center.
    5         17
                                   No pseudopotential on this center.
 ======================================================================================================
 Ernie: Thresh=  0.10000D-02 Tol=  0.10000D-05 Strict=F.
 AO basis set in the form of general basis input (Overlap normalization):
      1 0
 S   3 1.00       0.000000000000
      0.1209808200D+05  0.2884168448D-01
      0.1833757300D+04  0.2180092033D+00
      0.3516863200D+03  0.8395192276D+00
 S   3 1.00       0.000000000000
      0.6090582200D+02  0.9338504807D-01
      0.3551508600D+02 -0.4593840999D+00
      0.2089122700D+02  0.1355508280D+01
 S   1 1.00       0.000000000000
      0.1043142600D+03  0.1000000000D+01
 S   1 1.00       0.000000000000
      0.1018464700D+02  0.1000000000D+01
 S   1 1.00       0.000000000000
      0.2851851000D+01  0.1000000000D+01
 S   1 1.00       0.000000000000
      0.1531616000D+01  0.1000000000D+01
 S   1 1.00       0.000000000000
      0.6162030000D+00  0.1000000000D+01
 S   1 1.00       0.000000000000
      0.2794940000D+00  0.1000000000D+01
 S   1 1.00       0.000000000000
      0.5725300000D-01  0.1000000000D+01
 S   1 1.00       0.000000000000
      0.2344300000D-01  0.1000000000D+01
 P   5 1.00       0.000000000000
      0.2906845100D+04  0.2490724940D-02
      0.6944005300D+03  0.2071830291D-01
      0.2246347900D+03  0.9662880620D-01
      0.8052052600D+02  0.3141426831D+00
      0.2408021100D+02  0.7137059101D+00
 P   1 1.00       0.000000000000
      0.1407758000D+02  0.1000000000D+01
 P   1 1.00       0.000000000000
      0.8265846000D+01  0.1000000000D+01
 P   1 1.00       0.000000000000
      0.3423607000D+01  0.1000000000D+01
 P   1 1.00       0.000000000000
      0.1708417000D+01  0.1000000000D+01
 P   1 1.00       0.000000000000
      0.6550460000D+00  0.1000000000D+01
 P   1 1.00       0.000000000000
      0.2837550000D+00  0.1000000000D+01
 P   1 1.00       0.000000000000
      0.1018140000D+00  0.1000000000D+01
 P   1 1.00       0.000000000000
      0.3053500000D-01  0.1000000000D+01
 D   6 1.00       0.000000000000
      0.4490195300D+03  0.1244413406D-03
      0.1563569500D+03  0.8014022332D-03
      0.6024243900D+02  0.4422645243D-02
      0.1777231700D+02  0.6317886860D-01
      0.1045430400D+02 -0.2224463627D+00
      0.3583433000D+01  0.1107027677D+01
 D   1 1.00       0.000000000000
      0.1763724000D+01  0.1000000000D+01
 D   1 1.00       0.000000000000
      0.7840300000D+00  0.1000000000D+01
 D   1 1.00       0.000000000000
      0.2761270000D+00  0.1000000000D+01
 D   1 1.00       0.000000000000
      0.8698000000D-01  0.1000000000D+01
 F   5 1.00       0.000000000000
      0.1052879300D+03  0.5015876177D-03
      0.3510118100D+02  0.5077474656D-02
      0.1456413800D+02  0.2035609748D-01
      0.4651885000D+01  0.3012803625D+00
      0.2255973000D+01  0.7475437460D+00
 F   1 1.00       0.000000000000
      0.1010274000D+01  0.1000000000D+01
 F   1 1.00       0.000000000000
      0.4116800000D+00  0.1000000000D+01
 F   1 1.00       0.000000000000
      0.1441200000D+00  0.1000000000D+01
 G   4 1.00       0.000000000000
      0.1052879300D+03  0.1132460043D-02
      0.3510118100D+02  0.1513528715D-01
      0.1456413800D+02  0.1648266662D+00
      0.4651885000D+01  0.9155402153D+00
 G   1 1.00       0.000000000000
      0.2255973000D+01  0.1000000000D+01
 G   1 1.00       0.000000000000
      0.1010274000D+01  0.1000000000D+01
 ****
      2 0
 S   6 1.00       0.000000000000
      0.2703238263D+05  0.5722733521D-03
      0.4052387139D+04  0.4435323349D-02
      0.9223272271D+03  0.2302010771D-01
      0.2612407099D+03  0.9282249067D-01
      0.8535464135D+02  0.2937850001D+00
      0.3103503524D+02  0.6740160450D+00
 S   2 1.00       0.000000000000
      0.1226086073D+02  0.6383993703D+00
      0.4998707601D+01  0.3953458713D+00
 S   1 1.00       0.000000000000
      0.1170310816D+01  0.1000000000D+01
 S   1 1.00       0.000000000000
      0.4647474099D+00  0.1000000000D+01
 S   1 1.00       0.000000000000
      0.1850453636D+00  0.1000000000D+01
 P   4 1.00       0.000000000000
      0.6327495480D+02  0.1201833222D-01
      0.1462704938D+02  0.8300542179D-01
      0.4450122346D+01  0.3199174393D+00
      0.1527579965D+01  0.7071554292D+00
 P   1 1.00       0.000000000000
      0.5293511794D+00  0.1000000000D+01
 P   1 1.00       0.000000000000
      0.1747842127D+00  0.1000000000D+01
 D   1 1.00       0.000000000000
      0.2314000000D+01  0.1000000000D+01
 D   1 1.00       0.000000000000
      0.6450000000D+00  0.1000000000D+01
 F   1 1.00       0.000000000000
      0.1428000000D+01  0.1000000000D+01
 ****
      3 0
 S   6 1.00       0.000000000000
      0.2703238263D+05  0.5722733521D-03
      0.4052387139D+04  0.4435323349D-02
      0.9223272271D+03  0.2302010771D-01
      0.2612407099D+03  0.9282249067D-01
      0.8535464135D+02  0.2937850001D+00
      0.3103503524D+02  0.6740160450D+00
 S   2 1.00       0.000000000000
      0.1226086073D+02  0.6383993703D+00
      0.4998707601D+01  0.3953458713D+00
 S   1 1.00       0.000000000000
      0.1170310816D+01  0.1000000000D+01
 S   1 1.00       0.000000000000
      0.4647474099D+00  0.1000000000D+01
 S   1 1.00       0.000000000000
      0.1850453636D+00  0.1000000000D+01
 P   4 1.00       0.000000000000
      0.6327495480D+02  0.1201833222D-01
      0.1462704938D+02  0.8300542179D-01
      0.4450122346D+01  0.3199174393D+00
      0.1527579965D+01  0.7071554292D+00
 P   1 1.00       0.000000000000
      0.5293511794D+00  0.1000000000D+01
 P   1 1.00       0.000000000000
      0.1747842127D+00  0.1000000000D+01
 D   1 1.00       0.000000000000
      0.2314000000D+01  0.1000000000D+01
 D   1 1.00       0.000000000000
      0.6450000000D+00  0.1000000000D+01
 F   1 1.00       0.000000000000
      0.1428000000D+01  0.1000000000D+01
 ****
      4 0
 S   7 1.00       0.000000000000
      0.6950799094D+05  0.5145738965D-03
      0.1042615688D+05  0.3978134481D-02
      0.2373233406D+04  0.2045617867D-01
      0.6715642007D+03  0.8014810289D-01
      0.2184199979D+03  0.2345477032D+00
      0.7757224971D+02  0.4454336858D+00
      0.2888881528D+02  0.3546684250D+00
 S   3 1.00       0.000000000000
      0.1271052718D+03  0.1129368805D+00
      0.3933958296D+02  0.4837351421D+00
      0.7674067999D+01 -0.1229229739D+01
 S   2 1.00       0.000000000000
      0.3874562763D+01  0.6729682164D+00
      0.1838583257D+01  0.3495605141D+00
 S   1 1.00       0.000000000000
      0.5022905754D+00  0.1000000000D+01
 S   1 1.00       0.000000000000
      0.1796272342D+00  0.1000000000D+01
 P   5 1.00       0.000000000000
      0.6665042328D+03  0.3350250820D-02
      0.1576424169D+03  0.2676397041D-01
      0.5026252098D+02  0.1236268236D+00
      0.1853607811D+02  0.3584578792D+00
      0.7294053278D+01  0.6167729635D+00
 P   1 1.00       0.000000000000
      0.2943324899D+01  0.1000000000D+01
 P   1 1.00       0.000000000000
      0.1040497082D+01  0.1000000000D+01
 P   1 1.00       0.000000000000
      0.3845641508D+00  0.1000000000D+01
 P   1 1.00       0.000000000000
      0.1306964273D+00  0.1000000000D+01
 D   2 1.00       0.000000000000
      0.4610000000D+01  0.1826583505D+00
      0.1011000000D+01  0.9132917523D+00
 D   1 1.00       0.000000000000
      0.3390000000D+00  0.1000000000D+01
 F   1 1.00       0.000000000000
      0.7060000000D+00  0.1000000000D+01
 ****
      5 0
 S   7 1.00       0.000000000000
      0.6950799094D+05  0.5145738965D-03
      0.1042615688D+05  0.3978134481D-02
      0.2373233406D+04  0.2045617867D-01
      0.6715642007D+03  0.8014810289D-01
      0.2184199979D+03  0.2345477032D+00
      0.7757224971D+02  0.4454336858D+00
      0.2888881528D+02  0.3546684250D+00
 S   3 1.00       0.000000000000
      0.1271052718D+03  0.1129368805D+00
      0.3933958296D+02  0.4837351421D+00
      0.7674067999D+01 -0.1229229739D+01
 S   2 1.00       0.000000000000
      0.3874562763D+01  0.6729682164D+00
      0.1838583257D+01  0.3495605141D+00
 S   1 1.00       0.000000000000
      0.5022905754D+00  0.1000000000D+01
 S   1 1.00       0.000000000000
      0.1796272342D+00  0.1000000000D+01
 P   5 1.00       0.000000000000
      0.6665042328D+03  0.3350250820D-02
      0.1576424169D+03  0.2676397041D-01
      0.5026252098D+02  0.1236268236D+00
      0.1853607811D+02  0.3584578792D+00
      0.7294053278D+01  0.6167729635D+00
 P   1 1.00       0.000000000000
      0.2943324899D+01  0.1000000000D+01
 P   1 1.00       0.000000000000
      0.1040497082D+01  0.1000000000D+01
 P   1 1.00       0.000000000000
      0.3845641508D+00  0.1000000000D+01
 P   1 1.00       0.000000000000
      0.1306964273D+00  0.1000000000D+01
 D   2 1.00       0.000000000000
      0.4610000000D+01  0.1826583505D+00
      0.1011000000D+01  0.9132917523D+00
 D   1 1.00       0.000000000000
      0.3390000000D+00  0.1000000000D+01
 F   1 1.00       0.000000000000
      0.7060000000D+00  0.1000000000D+01
 ****

 AO basis set (Overlap normalization):
 Atom U1       Shell     1 S   3     bf    1 -     1         -0.000000000000         -0.000000000000          0.598512198080
      0.1209808200D+05  0.2884168448D-01
      0.1833757300D+04  0.2180092033D+00
      0.3516863200D+03  0.8395192276D+00
 Atom U1       Shell     2 S   3     bf    2 -     2         -0.000000000000         -0.000000000000          0.598512198080
      0.6090582200D+02  0.9338504807D-01
      0.3551508600D+02 -0.4593840999D+00
      0.2089122700D+02  0.1355508280D+01
 Atom U1       Shell     3 S   1     bf    3 -     3         -0.000000000000         -0.000000000000          0.598512198080
      0.1043142600D+03  0.1000000000D+01
 Atom U1       Shell     4 S   1     bf    4 -     4         -0.000000000000         -0.000000000000          0.598512198080
      0.1018464700D+02  0.1000000000D+01
 Atom U1       Shell     5 S   1     bf    5 -     5         -0.000000000000         -0.000000000000          0.598512198080
      0.2851851000D+01  0.1000000000D+01
 Atom U1       Shell     6 S   1     bf    6 -     6         -0.000000000000         -0.000000000000          0.598512198080
      0.1531616000D+01  0.1000000000D+01
 Atom U1       Shell     7 S   1     bf    7 -     7         -0.000000000000         -0.000000000000          0.598512198080
      0.6162030000D+00  0.1000000000D+01
 Atom U1       Shell     8 S   1     bf    8 -     8         -0.000000000000         -0.000000000000          0.598512198080
      0.2794940000D+00  0.1000000000D+01
 Atom U1       Shell     9 S   1     bf    9 -     9         -0.000000000000         -0.000000000000          0.598512198080
      0.5725300000D-01  0.1000000000D+01
 Atom U1       Shell    10 S   1     bf   10 -    10         -0.000000000000         -0.000000000000          0.598512198080
      0.2344300000D-01  0.1000000000D+01
 Atom U1       Shell    11 P   5     bf   11 -    13         -0.000000000000         -0.000000000000          0.598512198080
      0.2906845100D+04  0.2490724940D-02
      0.6944005300D+03  0.2071830291D-01
      0.2246347900D+03  0.9662880620D-01
      0.8052052600D+02  0.3141426831D+00
      0.2408021100D+02  0.7137059101D+00
 Atom U1       Shell    12 P   1     bf   14 -    16         -0.000000000000         -0.000000000000          0.598512198080
      0.1407758000D+02  0.1000000000D+01
 Atom U1       Shell    13 P   1     bf   17 -    19         -0.000000000000         -0.000000000000          0.598512198080
      0.8265846000D+01  0.1000000000D+01
 Atom U1       Shell    14 P   1     bf   20 -    22         -0.000000000000         -0.000000000000          0.598512198080
      0.3423607000D+01  0.1000000000D+01
 Atom U1       Shell    15 P   1     bf   23 -    25         -0.000000000000         -0.000000000000          0.598512198080
      0.1708417000D+01  0.1000000000D+01
 Atom U1       Shell    16 P   1     bf   26 -    28         -0.000000000000         -0.000000000000          0.598512198080
      0.6550460000D+00  0.1000000000D+01
 Atom U1       Shell    17 P   1     bf   29 -    31         -0.000000000000         -0.000000000000          0.598512198080
      0.2837550000D+00  0.1000000000D+01
 Atom U1       Shell    18 P   1     bf   32 -    34         -0.000000000000         -0.000000000000          0.598512198080
      0.1018140000D+00  0.1000000000D+01
 Atom U1       Shell    19 P   1     bf   35 -    37         -0.000000000000         -0.000000000000          0.598512198080
      0.3053500000D-01  0.1000000000D+01
 Atom U1       Shell    20 D   6     bf   38 -    42         -0.000000000000         -0.000000000000          0.598512198080
      0.4490195300D+03  0.1244413406D-03
      0.1563569500D+03  0.8014022332D-03
      0.6024243900D+02  0.4422645243D-02
      0.1777231700D+02  0.6317886860D-01
      0.1045430400D+02 -0.2224463627D+00
      0.3583433000D+01  0.1107027677D+01
 Atom U1       Shell    21 D   1     bf   43 -    47         -0.000000000000         -0.000000000000          0.598512198080
      0.1763724000D+01  0.1000000000D+01
 Atom U1       Shell    22 D   1     bf   48 -    52         -0.000000000000         -0.000000000000          0.598512198080
      0.7840300000D+00  0.1000000000D+01
 Atom U1       Shell    23 D   1     bf   53 -    57         -0.000000000000         -0.000000000000          0.598512198080
      0.2761270000D+00  0.1000000000D+01
 Atom U1       Shell    24 D   1     bf   58 -    62         -0.000000000000         -0.000000000000          0.598512198080
      0.8698000000D-01  0.1000000000D+01
 Atom U1       Shell    25 F   5     bf   63 -    69         -0.000000000000         -0.000000000000          0.598512198080
      0.1052879300D+03  0.5015876177D-03
      0.3510118100D+02  0.5077474656D-02
      0.1456413800D+02  0.2035609748D-01
      0.4651885000D+01  0.3012803625D+00
      0.2255973000D+01  0.7475437460D+00
 Atom U1       Shell    26 F   1     bf   70 -    76         -0.000000000000         -0.000000000000          0.598512198080
      0.1010274000D+01  0.1000000000D+01
 Atom U1       Shell    27 F   1     bf   77 -    83         -0.000000000000         -0.000000000000          0.598512198080
      0.4116800000D+00  0.1000000000D+01
 Atom U1       Shell    28 F   1     bf   84 -    90         -0.000000000000         -0.000000000000          0.598512198080
      0.1441200000D+00  0.1000000000D+01
 Atom U1       Shell    29 G   4     bf   91 -    99         -0.000000000000         -0.000000000000          0.598512198080
      0.1052879300D+03  0.1132460043D-02
      0.3510118100D+02  0.1513528715D-01
      0.1456413800D+02  0.1648266662D+00
      0.4651885000D+01  0.9155402153D+00
 Atom U1       Shell    30 G   1     bf  100 -   108         -0.000000000000         -0.000000000000          0.598512198080
      0.2255973000D+01  0.1000000000D+01
 Atom U1       Shell    31 G   1     bf  109 -   117         -0.000000000000         -0.000000000000          0.598512198080
      0.1010274000D+01  0.1000000000D+01
 Atom O2       Shell    32 S   6     bf  118 -   118          0.000000000000          3.267242173864          0.598514227776
      0.2703238263D+05  0.5722733521D-03
      0.4052387139D+04  0.4435323349D-02
      0.9223272271D+03  0.2302010771D-01
      0.2612407099D+03  0.9282249067D-01
      0.8535464135D+02  0.2937850001D+00
      0.3103503524D+02  0.6740160450D+00
 Atom O2       Shell    33 S   2     bf  119 -   119          0.000000000000          3.267242173864          0.598514227776
      0.1226086073D+02  0.6383993703D+00
      0.4998707601D+01  0.3953458713D+00
 Atom O2       Shell    34 S   1     bf  120 -   120          0.000000000000          3.267242173864          0.598514227776
      0.1170310816D+01  0.1000000000D+01
 Atom O2       Shell    35 S   1     bf  121 -   121          0.000000000000          3.267242173864          0.598514227776
      0.4647474099D+00  0.1000000000D+01
 Atom O2       Shell    36 S   1     bf  122 -   122          0.000000000000          3.267242173864          0.598514227776
      0.1850453636D+00  0.1000000000D+01
 Atom O2       Shell    37 P   4     bf  123 -   125          0.000000000000          3.267242173864          0.598514227776
      0.6327495480D+02  0.1201833222D-01
      0.1462704938D+02  0.8300542179D-01
      0.4450122346D+01  0.3199174393D+00
      0.1527579965D+01  0.7071554292D+00
 Atom O2       Shell    38 P   1     bf  126 -   128          0.000000000000          3.267242173864          0.598514227776
      0.5293511794D+00  0.1000000000D+01
 Atom O2       Shell    39 P   1     bf  129 -   131          0.000000000000          3.267242173864          0.598514227776
      0.1747842127D+00  0.1000000000D+01
 Atom O2       Shell    40 D   1     bf  132 -   136          0.000000000000          3.267242173864          0.598514227776
      0.2314000000D+01  0.1000000000D+01
 Atom O2       Shell    41 D   1     bf  137 -   141          0.000000000000          3.267242173864          0.598514227776
      0.6450000000D+00  0.1000000000D+01
 Atom O2       Shell    42 F   1     bf  142 -   148          0.000000000000          3.267242173864          0.598514227776
      0.1428000000D+01  0.1000000000D+01
 Atom O3       Shell    43 S   6     bf  149 -   149         -0.000000000000         -3.267242173864          0.598514227776
      0.2703238263D+05  0.5722733521D-03
      0.4052387139D+04  0.4435323349D-02
      0.9223272271D+03  0.2302010771D-01
      0.2612407099D+03  0.9282249067D-01
      0.8535464135D+02  0.2937850001D+00
      0.3103503524D+02  0.6740160450D+00
 Atom O3       Shell    44 S   2     bf  150 -   150         -0.000000000000         -3.267242173864          0.598514227776
      0.1226086073D+02  0.6383993703D+00
      0.4998707601D+01  0.3953458713D+00
 Atom O3       Shell    45 S   1     bf  151 -   151         -0.000000000000         -3.267242173864          0.598514227776
      0.1170310816D+01  0.1000000000D+01
 Atom O3       Shell    46 S   1     bf  152 -   152         -0.000000000000         -3.267242173864          0.598514227776
      0.4647474099D+00  0.1000000000D+01
 Atom O3       Shell    47 S   1     bf  153 -   153         -0.000000000000         -3.267242173864          0.598514227776
      0.1850453636D+00  0.1000000000D+01
 Atom O3       Shell    48 P   4     bf  154 -   156         -0.000000000000         -3.267242173864          0.598514227776
      0.6327495480D+02  0.1201833222D-01
      0.1462704938D+02  0.8300542179D-01
      0.4450122346D+01  0.3199174393D+00
      0.1527579965D+01  0.7071554292D+00
 Atom O3       Shell    49 P   1     bf  157 -   159         -0.000000000000         -3.267242173864          0.598514227776
      0.5293511794D+00  0.1000000000D+01
 Atom O3       Shell    50 P   1     bf  160 -   162         -0.000000000000         -3.267242173864          0.598514227776
      0.1747842127D+00  0.1000000000D+01
 Atom O3       Shell    51 D   1     bf  163 -   167         -0.000000000000         -3.267242173864          0.598514227776
      0.2314000000D+01  0.1000000000D+01
 Atom O3       Shell    52 D   1     bf  168 -   172         -0.000000000000         -3.267242173864          0.598514227776
      0.6450000000D+00  0.1000000000D+01
 Atom O3       Shell    53 F   1     bf  173 -   179         -0.000000000000         -3.267242173864          0.598514227776
      0.1428000000D+01  0.1000000000D+01
 Atom Cl4      Shell    54 S   7     bf  180 -   180          4.039810160720         -0.000000000000         -1.901157349052
      0.6950799094D+05  0.5145738965D-03
      0.1042615688D+05  0.3978134481D-02
      0.2373233406D+04  0.2045617867D-01
      0.6715642007D+03  0.8014810289D-01
      0.2184199979D+03  0.2345477032D+00
      0.7757224971D+02  0.4454336858D+00
      0.2888881528D+02  0.3546684250D+00
 Atom Cl4      Shell    55 S   3     bf  181 -   181          4.039810160720         -0.000000000000         -1.901157349052
      0.1271052718D+03  0.1129368805D+00
      0.3933958296D+02  0.4837351421D+00
      0.7674067999D+01 -0.1229229739D+01
 Atom Cl4      Shell    56 S   2     bf  182 -   182          4.039810160720         -0.000000000000         -1.901157349052
      0.3874562763D+01  0.6729682164D+00
      0.1838583257D+01  0.3495605141D+00
 Atom Cl4      Shell    57 S   1     bf  183 -   183          4.039810160720         -0.000000000000         -1.901157349052
      0.5022905754D+00  0.1000000000D+01
 Atom Cl4      Shell    58 S   1     bf  184 -   184          4.039810160720         -0.000000000000         -1.901157349052
      0.1796272342D+00  0.1000000000D+01
 Atom Cl4      Shell    59 P   5     bf  185 -   187          4.039810160720         -0.000000000000         -1.901157349052
      0.6665042328D+03  0.3350250820D-02
      0.1576424169D+03  0.2676397041D-01
      0.5026252098D+02  0.1236268236D+00
      0.1853607811D+02  0.3584578792D+00
      0.7294053278D+01  0.6167729635D+00
 Atom Cl4      Shell    60 P   1     bf  188 -   190          4.039810160720         -0.000000000000         -1.901157349052
      0.2943324899D+01  0.1000000000D+01
 Atom Cl4      Shell    61 P   1     bf  191 -   193          4.039810160720         -0.000000000000         -1.901157349052
      0.1040497082D+01  0.1000000000D+01
 Atom Cl4      Shell    62 P   1     bf  194 -   196          4.039810160720         -0.000000000000         -1.901157349052
      0.3845641508D+00  0.1000000000D+01
 Atom Cl4      Shell    63 P   1     bf  197 -   199          4.039810160720         -0.000000000000         -1.901157349052
      0.1306964273D+00  0.1000000000D+01
 Atom Cl4      Shell    64 D   2     bf  200 -   204          4.039810160720         -0.000000000000         -1.901157349052
      0.4610000000D+01  0.1826583505D+00
      0.1011000000D+01  0.9132917523D+00
 Atom Cl4      Shell    65 D   1     bf  205 -   209          4.039810160720         -0.000000000000         -1.901157349052
      0.3390000000D+00  0.1000000000D+01
 Atom Cl4      Shell    66 F   1     bf  210 -   216          4.039810160720         -0.000000000000         -1.901157349052
      0.7060000000D+00  0.1000000000D+01
 Atom Cl5      Shell    67 S   7     bf  217 -   217         -4.039810160720          0.000000000000         -1.901157349052
      0.6950799094D+05  0.5145738965D-03
      0.1042615688D+05  0.3978134481D-02
      0.2373233406D+04  0.2045617867D-01
      0.6715642007D+03  0.8014810289D-01
      0.2184199979D+03  0.2345477032D+00
      0.7757224971D+02  0.4454336858D+00
      0.2888881528D+02  0.3546684250D+00
 Atom Cl5      Shell    68 S   3     bf  218 -   218         -4.039810160720          0.000000000000         -1.901157349052
      0.1271052718D+03  0.1129368805D+00
      0.3933958296D+02  0.4837351421D+00
      0.7674067999D+01 -0.1229229739D+01
 Atom Cl5      Shell    69 S   2     bf  219 -   219         -4.039810160720          0.000000000000         -1.901157349052
      0.3874562763D+01  0.6729682164D+00
      0.1838583257D+01  0.3495605141D+00
 Atom Cl5      Shell    70 S   1     bf  220 -   220         -4.039810160720          0.000000000000         -1.901157349052
      0.5022905754D+00  0.1000000000D+01
 Atom Cl5      Shell    71 S   1     bf  221 -   221         -4.039810160720          0.000000000000         -1.901157349052
      0.1796272342D+00  0.1000000000D+01
 Atom Cl5      Shell    72 P   5     bf  222 -   224         -4.039810160720          0.000000000000         -1.901157349052
      0.6665042328D+03  0.3350250820D-02
      0.1576424169D+03  0.2676397041D-01
      0.5026252098D+02  0.1236268236D+00
      0.1853607811D+02  0.3584578792D+00
      0.7294053278D+01  0.6167729635D+00
 Atom Cl5      Shell    73 P   1     bf  225 -   227         -4.039810160720          0.000000000000         -1.901157349052
      0.2943324899D+01  0.1000000000D+01
 Atom Cl5      Shell    74 P   1     bf  228 -   230         -4.039810160720          0.000000000000         -1.901157349052
      0.1040497082D+01  0.1000000000D+01
 Atom Cl5      Shell    75 P   1     bf  231 -   233         -4.039810160720          0.000000000000         -1.901157349052
      0.3845641508D+00  0.1000000000D+01
 Atom Cl5      Shell    76 P   1     bf  234 -   236         -4.039810160720          0.000000000000         -1.901157349052
      0.1306964273D+00  0.1000000000D+01
 Atom Cl5      Shell    77 D   2     bf  237 -   241         -4.039810160720          0.000000000000         -1.901157349052
      0.4610000000D+01  0.1826583505D+00
      0.1011000000D+01  0.9132917523D+00
 Atom Cl5      Shell    78 D   1     bf  242 -   246         -4.039810160720          0.000000000000         -1.901157349052
      0.3390000000D+00  0.1000000000D+01
 Atom Cl5      Shell    79 F   1     bf  247 -   253         -4.039810160720          0.000000000000         -1.901157349052
      0.7060000000D+00  0.1000000000D+01
 Effective core potential in the form of general ECP input:
      1 0
 U1-ECP   5 60
 H component
  1
  2        1.0000000        0.00000000    0.00000000
 S-H projection
  1
  2       16.4140387      536.51662778    0.00000000
 P-H projection
  1
  2        9.0605561      169.54492465    0.00000000
 D-H projection
  1
  2        8.8318320      142.61559837    0.00000000
 F-H projection
  1
  2        7.0185163       60.39307602    0.00000000
 G-H projection
  1
  2       12.8040884      -60.12998958    0.00000000
 
 There are   118 symmetry adapted cartesian basis functions of A1  symmetry.
 There are    42 symmetry adapted cartesian basis functions of A2  symmetry.
 There are    75 symmetry adapted cartesian basis functions of B1  symmetry.
 There are    73 symmetry adapted cartesian basis functions of B2  symmetry.
 There are    92 symmetry adapted basis functions of A1  symmetry.
 There are    37 symmetry adapted basis functions of A2  symmetry.
 There are    63 symmetry adapted basis functions of B1  symmetry.
 There are    61 symmetry adapted basis functions of B2  symmetry.
   253 basis functions,   523 primitive gaussians,   308 cartesian basis functions
    41 alpha electrons       41 beta electrons
       nuclear repulsion energy       525.6439821763 Hartrees.
 IExCor= 1009 DFT=T Ex+Corr=PBE1PBE ExCW=0 ScaHFX=  0.250000
 ScaDFX=  0.750000  0.750000  1.000000  1.000000 ScalE2=  1.000000  1.000000
 IRadAn=      5 IRanWt=     -1 IRanGd=            0 ICorTp=0 IEmpDi=141
 NAtoms=    5 NActive=    5 NUniq=    3 SFac= 2.78D+00 NAtFMM=   60 NAOKFM=F Big=F
 Integral buffers will be    131072 words long.
 Raffenetti 2 integral format.
 Two-electron integral symmetry is turned on.
 R6Disp:  Grimme-D3(BJ) Dispersion energy=       -0.0056065783 Hartrees.
 Nuclear repulsion after empirical dispersion term =      525.6383755980 Hartrees.
 Leave Link  301 at Wed Jan 12 14:57:10 2022, MaxMem=  1048576000 cpu:               0.6 elap:               0.2
 (Enter /home/pcmt/gaussian/g16.C.01/g16/l302.exe)
 NPDir=0 NMtPBC=     1 NCelOv=     1 NCel=       1 NClECP=     1 NCelD=      1
         NCelK=      1 NCelE2=     1 NClLst=     1 CellRange=     0.0.
 One-electron integrals computed using PRISM.
 One-electron integral symmetry used in STVInt
   4 Symmetry operations used in ECPInt.
 ECPInt:  NShTT=    3160 NPrTT=   10748 LenC2=    3031 LenP2D=    7875.
 LDataN:  DoStor=T MaxTD1= 9 Len=  602
 NBasis=   253 RedAO= T EigKep=  6.58D-04  NBF=    92    37    63    61
 NBsUse=   253 1.00D-06 EigRej= -1.00D+00 NBFU=    92    37    63    61
 Precomputing XC quadrature grid using
 IXCGrd= 4 IRadAn=           5 IRanWt=          -1 IRanGd=           0 AccXCQ= 0.00D+00.
 Defaulting to unpruned grid for atomic number  92.
 Generated NRdTot=       0 NPtTot=           0 NUsed=           0 NTot=          32
 NSgBfM=   303   303   303   303   303 MxSgAt=     5 MxSgA2=     5.
 Leave Link  302 at Wed Jan 12 14:57:11 2022, MaxMem=  1048576000 cpu:               4.2 elap:               1.4
 (Enter /home/pcmt/gaussian/g16.C.01/g16/l303.exe)
 DipDrv:  MaxL=1.
 Leave Link  303 at Wed Jan 12 14:57:11 2022, MaxMem=  1048576000 cpu:               0.2 elap:               0.1
 (Enter /home/pcmt/gaussian/g16.C.01/g16/l401.exe)
 Initial guess from the checkpoint file:  "gs-uo2_cl2.linear.pbe0-d3.QTAIM.chk"
 B after Tr=     0.000000    0.000000    0.000000
         Rot=    1.000000    0.000000    0.000000    0.000000 Ang=   0.00 deg.
 Guess basis will be translated and rotated to current coordinates.
 JPrj=2 DoOrth=T DoCkMO=T.
 Initial guess orbital symmetries:
       Occupied  (B1) (A1) (B2) (A1) (A1) (B1) (A1) (B1) (A1) (B2)
                 (A1) (B1) (A1) (B1) (B2) (A2) (A1) (B1) (A2) (B2)
                 (A1) (A1) (B2) (B1) (A1) (A1) (A1) (B1) (B2) (A2)
                 (B2) (A1) (B1) (A1) (B2) (A1) (B1) (A1) (B1) (A2)
                 (B2)
       Virtual   (A1) (B1) (B2) (A2) (A1) (B1) (A1) (B1) (A1) (A1)
                 (B2) (B1) (A1) (B2) (A2) (B2) (A1) (B2) (A1) (B1)
                 (A2) (B2) (A1) (B1) (A1) (B2) (B1) (A2) (A1) (B1)
                 (A2) (B2) (A1) (B1) (A1) (B2) (B1) (A2) (A1) (B2)
                 (B1) (A1) (A1) (B1) (A1) (B2) (A2) (B2) (A1) (B1)
                 (A1) (A2) (B1) (B2) (A1) (B2) (A1) (B1) (A1) (A1)
                 (B1) (B2) (B1) (A1) (A2) (A1) (B1) (A1) (B1) (B2)
                 (B2) (A2) (B2) (A2) (A1) (A2) (A2) (B2) (A1) (B1)
                 (A1) (B2) (B1) (B2) (A1) (A1) (B1) (B1) (A2) (B2)
                 (B2) (A1) (A2) (B1) (A2) (A1) (B1) (B2) (A1) (B2)
                 (B1) (A1) (B1) (B1) (A2) (A1) (A1) (B2) (B2) (B1)
                 (A1) (A2) (B1) (A1) (A2) (B1) (A1) (B2) (B2) (A2)
                 (A1) (A1) (B1) (B2) (A1) (A2) (B1) (A1) (B2) (A1)
                 (B2) (B2) (B2) (A2) (B1) (A1) (B1) (A1) (A1) (B1)
                 (A2) (B2) (B2) (A2) (B1) (A1) (B2) (A2) (A1) (A1)
                 (B1) (B2) (A1) (A1) (B1) (B1) (A2) (B2) (A1) (A2)
                 (B2) (B2) (A1) (B1) (A2) (A1) (B1) (B2) (A1) (B1)
                 (A1) (B2) (A2) (A1) (B2) (A1) (B2) (A2) (B1) (A1)
                 (B1) (A2) (A1) (B2) (B1) (A1) (A2) (B2) (A1) (B1)
                 (A1) (B1) (B2) (A2) (A1) (A1) (B1) (B2) (A1) (B1)
                 (A1) (A1) (B2) (A1) (B1) (B2) (A1) (A1) (B1) (B2)
                 (A1) (A1)
 The electronic state of the initial guess is 1-A1.
 Leave Link  401 at Wed Jan 12 14:57:12 2022, MaxMem=  1048576000 cpu:               1.3 elap:               0.4
 (Enter /home/pcmt/gaussian/g16.C.01/g16/l502.exe)
 Keep R1 ints in memory in symmetry-blocked form, NReq=646035938.
 FoFCou: FMM=F IPFlag=           0 FMFlag=           0 FMFlg1=           0
         NFxFlg=           0 DoJE=F BraDBF=F KetDBF=F FulRan=T
         wScrn=  0.000000 ICntrl=       600 IOpCl=  0 I1Cent=           0 NGrid=           0
         NMat0=    1 NMatS0=  32131 NMatT0=    0 NMatD0=    1 NMtDS0=    0 NMtDT0=    0
 Petite list used in FoFCou.
 Closed shell SCF:
 Using DIIS extrapolation, IDIIS=  1040.
 NGot=  1048576000 LenX=   918564064 LenY=   918468759
 Requested convergence on RMS density matrix=1.00D-08 within 100 cycles.
 Requested convergence on MAX density matrix=1.00D-06.
 Requested convergence on             energy=1.00D-06.
 No special actions if energy rises.

 Cycle   1  Pass 1  IDiag  1:
 Defaulting to unpruned grid for atomic number  92.
 Defaulting to unpruned grid for atomic number  92.
 Defaulting to unpruned grid for atomic number  92.
 Defaulting to unpruned grid for atomic number  92.
 E= -1547.64206011679    
 DIIS: error= 7.42D-08 at cycle   1 NSaved=   1.
 NSaved= 1 IEnMin= 1 EnMin= -1547.64206011679     IErMin= 1 ErrMin= 7.42D-08
 ErrMax= 7.42D-08  0.00D+00 EMaxC= 1.00D-01 BMatC= 1.03D-12 BMatP= 1.03D-12
 IDIUse=1 WtCom= 1.00D+00 WtEn= 0.00D+00
 Coeff-Com:  0.100D+01
 Coeff:      0.100D+01
 Gap=     0.170 Goal=   None    Shift=    0.000
 RMSDP=9.92D-09 MaxDP=7.49D-07              OVMax= 9.43D-07

 SCF Done:  E(RPBE1PBE) =  -1547.64206012     A.U. after    1 cycles
            NFock=  1  Conv=0.99D-08     -V/T= 2.2699
 KE= 1.218667061967D+03 PE=-4.565821524493D+03 EE= 1.273874026811D+03
 Leave Link  502 at Wed Jan 12 15:02:31 2022, MaxMem=  1048576000 cpu:            1147.7 elap:             319.1
 (Enter /home/pcmt/gaussian/g16.C.01/g16/l601.exe)
 Copying SCF densities to generalized density rwf, IOpCl= 0 IROHF=0.

 **********************************************************************

            Population analysis using the SCF Density.

 **********************************************************************

 Orbital symmetries:
       Occupied  (B1) (A1) (B2) (A1) (A1) (B1) (A1) (B1) (A1) (B2)
                 (A1) (B1) (A1) (B1) (B2) (A2) (A1) (B1) (A2) (B2)
                 (A1) (A1) (B2) (B1) (A1) (A1) (A1) (B1) (B2) (A2)
                 (B2) (A1) (B1) (A1) (B2) (A1) (B1) (A1) (B1) (A2)
                 (B2)
       Virtual   (A1) (B1) (B2) (A2) (A1) (B1) (A1) (B1) (A1) (A1)
                 (B2) (B1) (A1) (B2) (A2) (B2) (A1) (B2) (A1) (B1)
                 (A2) (B2) (A1) (B1) (A1) (B2) (B1) (A2) (A1) (B1)
                 (A2) (B2) (A1) (B1) (A1) (B2) (B1) (A2) (A1) (B2)
                 (B1) (A1) (A1) (B1) (A1) (B2) (A2) (B2) (A1) (B1)
                 (A1) (A2) (B1) (B2) (A1) (B2) (A1) (B1) (A1) (A1)
                 (B1) (B2) (B1) (A1) (A2) (A1) (B1) (A1) (B1) (B2)
                 (B2) (A2) (B2) (A2) (A1) (A2) (A2) (B2) (A1) (B1)
                 (A1) (B2) (B1) (B2) (A1) (A1) (B1) (B1) (A2) (B2)
                 (B2) (A1) (A2) (B1) (A2) (A1) (B1) (B2) (A1) (B2)
                 (B1) (A1) (B1) (B1) (A2) (A1) (A1) (B2) (B2) (B1)
                 (A1) (A2) (B1) (A1) (A2) (B1) (A1) (B2) (B2) (A2)
                 (A1) (A1) (B1) (B2) (A1) (A2) (B1) (A1) (B2) (A1)
                 (B2) (B2) (B2) (A2) (B1) (A1) (B1) (A1) (A1) (B1)
                 (A2) (B2) (B2) (A2) (B1) (A1) (B2) (A2) (A1) (A1)
                 (B1) (B2) (A1) (A1) (B1) (B1) (A2) (B2) (A1) (A2)
                 (B2) (B2) (A1) (B1) (A2) (A1) (B1) (B2) (A1) (B1)
                 (A1) (B2) (A2) (A1) (B2) (A1) (B2) (A2) (B1) (A1)
                 (B1) (A2) (A1) (B2) (B1) (A1) (A2) (B2) (A1) (B1)
                 (A1) (B1) (B2) (A2) (A1) (A1) (B1) (B2) (A1) (B1)
                 (A1) (A1) (B2) (A1) (B1) (B2) (A1) (A1) (B1) (B2)
                 (A1) (A1)
 The electronic state is 1-A1.
 Alpha  occ. eigenvalues -- -101.68192-101.68192 -19.27445 -19.27444 -12.16511
 Alpha  occ. eigenvalues --   -9.50909  -9.50909  -7.60400  -7.60168  -7.56780
 Alpha  occ. eigenvalues --   -7.23858  -7.23858  -7.23795  -7.23795  -7.23618
 Alpha  occ. eigenvalues --   -7.23617  -3.96720  -3.96680  -3.95306  -3.95123
 Alpha  occ. eigenvalues --   -3.94475  -1.97934  -1.26478  -1.02811  -1.01784
 Alpha  occ. eigenvalues --   -1.01681  -0.80693  -0.79433  -0.75403  -0.46236
 Alpha  occ. eigenvalues --   -0.46032  -0.44752  -0.43535  -0.43480  -0.39991
 Alpha  occ. eigenvalues --   -0.36906  -0.35834  -0.34239  -0.33544  -0.32530
 Alpha  occ. eigenvalues --   -0.31854
 Alpha virt. eigenvalues --   -0.14851  -0.14764  -0.14464  -0.14398  -0.09940
 Alpha virt. eigenvalues --   -0.08224  -0.06563  -0.02438  -0.00764   0.03440
 Alpha virt. eigenvalues --    0.03442   0.05355   0.06627   0.07349   0.09518
 Alpha virt. eigenvalues --    0.09561   0.18889   0.20140   0.22508   0.24123
 Alpha virt. eigenvalues --    0.25828   0.25883   0.27951   0.28118   0.30909
 Alpha virt. eigenvalues --    0.31803   0.33788   0.34872   0.35524   0.37986
 Alpha virt. eigenvalues --    0.39276   0.39784   0.40497   0.41506   0.41692
 Alpha virt. eigenvalues --    0.43000   0.43065   0.47050   0.49614   0.53072
 Alpha virt. eigenvalues --    0.53296   0.54833   0.60748   0.62782   0.64786
 Alpha virt. eigenvalues --    0.64820   0.65751   0.65844   0.68227   0.69484
 Alpha virt. eigenvalues --    0.71398   0.75676   0.75820   0.75951   0.79379
 Alpha virt. eigenvalues --    0.88462   1.02376   1.07196   1.15965   1.25110
 Alpha virt. eigenvalues --    1.29855   1.38659   1.39610   1.40774   1.42492
 Alpha virt. eigenvalues --    1.44333   1.45889   1.49672   1.49979   1.50639
 Alpha virt. eigenvalues --    1.58065   1.58212   1.59643   1.60861   1.68519
 Alpha virt. eigenvalues --    1.76452   1.77530   1.77731   1.78168   1.79680
 Alpha virt. eigenvalues --    1.82557   1.82656   1.89169   1.90290   1.90816
 Alpha virt. eigenvalues --    1.92226   1.92833   1.96475   1.99686   1.99946
 Alpha virt. eigenvalues --    2.08908   2.09011   2.09811   2.10147   2.10790
 Alpha virt. eigenvalues --    2.10924   2.11660   2.14035   2.14418   2.15332
 Alpha virt. eigenvalues --    2.16908   2.20827   2.21004   2.25531   2.26276
 Alpha virt. eigenvalues --    2.27980   2.29705   2.30012   2.32359   2.34700
 Alpha virt. eigenvalues --    2.35765   2.43337   2.45171   2.46971   2.47540
 Alpha virt. eigenvalues --    2.51691   2.52495   2.52699   2.55456   2.57105
 Alpha virt. eigenvalues --    2.68771   2.77581   2.79945   2.99028   3.00896
 Alpha virt. eigenvalues --    3.04135   3.05567   3.08743   3.13407   4.00002
 Alpha virt. eigenvalues --    4.43605   4.51414   4.64237   4.67136   4.73739
 Alpha virt. eigenvalues --    4.79765   4.95560   4.96140   5.03432   5.05655
 Alpha virt. eigenvalues --    5.05949   5.06178   5.07147   5.07337   5.07490
 Alpha virt. eigenvalues --    5.08324   5.16679   5.18103   5.19463   5.31836
 Alpha virt. eigenvalues --    5.32797   5.41752   6.09906   6.11331   6.12473
 Alpha virt. eigenvalues --    6.16425   6.16564   6.17690   6.18040   6.26326
 Alpha virt. eigenvalues --    6.26494   6.27493   6.30385   6.31047   6.33065
 Alpha virt. eigenvalues --    6.39633   6.41074   6.55643   6.63424   6.64405
 Alpha virt. eigenvalues --    6.84445   7.07825   7.11047   7.17515   7.55690
 Alpha virt. eigenvalues --    8.13902   8.15090   8.18042   8.28108   9.64713
 Alpha virt. eigenvalues --   10.76650  10.77830  10.78010  10.79593  10.98649
 Alpha virt. eigenvalues --   11.02277  13.37206  13.38170  13.39488  13.39590
 Alpha virt. eigenvalues --   13.43824  13.46006  13.77079  13.77327  14.26033
 Alpha virt. eigenvalues --   21.46386  21.53117  21.74989  25.11990  25.18079
 Alpha virt. eigenvalues --   32.17631  43.73243  43.97144  47.89362  47.95239
 Alpha virt. eigenvalues --   48.14603  59.19915 122.13478 122.21591 122.47169
 Alpha virt. eigenvalues --  229.19312 673.71908
     Molecular Orbital Coefficients:
                           1         2         3         4         5
                        (B1)--O   (A1)--O   (B2)--O   (A1)--O   (A1)--O
     Eigenvalues --  -101.68192-101.68192 -19.27445 -19.27444 -12.16511
   1 1   U  1S          0.00000  -0.00000   0.00000   0.00000  -0.00347
   2        2S          0.00000  -0.00002   0.00000   0.00002  -0.54363
   3        3S          0.00000   0.00000   0.00000  -0.00000   0.00649
   4        4S          0.00000   0.00005   0.00000  -0.00005   1.29771
   5        5S          0.00000  -0.00013   0.00000   0.00000  -1.10030
   6        6S          0.00000   0.00020   0.00000   0.00061  -0.40424
   7        7S          0.00000  -0.00005   0.00000  -0.00338  -0.02191
   8        8S          0.00000  -0.00055   0.00000   0.00427   0.00506
   9        9S          0.00000   0.00262   0.00000  -0.00776   0.00029
  10       10S          0.00000  -0.00051   0.00000   0.00142  -0.00004
  11       11PX        -0.00000   0.00000   0.00000   0.00000   0.00000
  12       11PY         0.00000   0.00000  -0.00001   0.00000   0.00000
  13       11PZ         0.00000   0.00000   0.00000   0.00000   0.00001
  14       12PX         0.00002   0.00000   0.00000   0.00000   0.00000
  15       12PY         0.00000   0.00000   0.00004   0.00000   0.00000
  16       12PZ         0.00000  -0.00001   0.00000  -0.00000  -0.00003
  17       13PX        -0.00004   0.00000   0.00000   0.00000   0.00000
  18       13PY         0.00000   0.00000  -0.00009   0.00000   0.00000
  19       13PZ         0.00000   0.00002   0.00000   0.00001  -0.00003
  20       14PX         0.00007   0.00000   0.00000   0.00000   0.00000
  21       14PY         0.00000   0.00000   0.00011   0.00000   0.00000
  22       14PZ         0.00000  -0.00004   0.00000  -0.00002   0.00031
  23       15PX        -0.00008   0.00000   0.00000   0.00000   0.00000
  24       15PY         0.00000   0.00000   0.00016   0.00000   0.00000
  25       15PZ         0.00000   0.00005   0.00000   0.00003  -0.00024
  26       16PX         0.00012   0.00000   0.00000   0.00000   0.00000
  27       16PY         0.00000   0.00000  -0.00322   0.00000   0.00000
  28       16PZ         0.00000  -0.00007   0.00000  -0.00000   0.00008
  29       17PX        -0.00050   0.00000   0.00000   0.00000   0.00000
  30       17PY         0.00000   0.00000   0.00787   0.00000   0.00000
  31       17PZ         0.00000   0.00033   0.00000  -0.00014  -0.00009
  32       18PX         0.00231   0.00000   0.00000   0.00000   0.00000
  33       18PY         0.00000   0.00000  -0.01737   0.00000   0.00000
  34       18PZ         0.00000  -0.00148   0.00000   0.00049  -0.00006
  35       19PX         0.00010   0.00000   0.00000   0.00000   0.00000
  36       19PY         0.00000   0.00000   0.00074   0.00000   0.00000
  37       19PZ         0.00000  -0.00002   0.00000  -0.00008   0.00002
  38       20D 0        0.00000   0.00001   0.00000  -0.00018  -0.00146
  39       20D+1        0.00005   0.00000   0.00000   0.00000   0.00000
  40       20D-1        0.00000   0.00000   0.00001   0.00000   0.00000
  41       20D+2        0.00000  -0.00004   0.00000  -0.00024  -0.00252
  42       20D-2        0.00000   0.00000   0.00000   0.00000   0.00000
  43       21D 0        0.00000  -0.00003   0.00000   0.00046   0.00007
  44       21D+1       -0.00014   0.00000   0.00000   0.00000   0.00000
  45       21D-1        0.00000   0.00000  -0.00002   0.00000   0.00000
  46       21D+2        0.00000   0.00010   0.00000   0.00065  -0.00030
  47       21D-2        0.00000   0.00000   0.00000   0.00000   0.00000
  48       22D 0        0.00000   0.00003   0.00000  -0.00046  -0.00007
  49       22D+1        0.00022   0.00000   0.00000   0.00000   0.00000
  50       22D-1        0.00000   0.00000   0.00003   0.00000   0.00000
  51       22D+2        0.00000  -0.00019   0.00000  -0.00058  -0.00007
  52       22D-2        0.00000   0.00000   0.00000   0.00000   0.00000
  53       23D 0        0.00000   0.00001   0.00000  -0.00121  -0.00030
  54       23D+1       -0.00037   0.00000   0.00000   0.00000   0.00000
  55       23D-1        0.00000   0.00000  -0.00004   0.00000   0.00000
  56       23D+2        0.00000   0.00039   0.00000  -0.00234  -0.00042
  57       23D-2        0.00000   0.00000   0.00000   0.00000   0.00000
  58       24D 0        0.00000  -0.00021   0.00000   0.00196  -0.00009
  59       24D+1       -0.00102   0.00000   0.00000   0.00000   0.00000
  60       24D-1        0.00000   0.00000   0.00044   0.00000   0.00000
  61       24D+2        0.00000   0.00083   0.00000   0.00291  -0.00014
  62       24D-2        0.00000   0.00000   0.00000   0.00000   0.00000
  63       25F 0        0.00000  -0.00000   0.00000  -0.00000  -0.00013
  64       25F+1       -0.00000   0.00000   0.00000   0.00000   0.00000
  65       25F-1        0.00000   0.00000  -0.00005   0.00000   0.00000
  66       25F+2        0.00000  -0.00001   0.00000   0.00001   0.00018
  67       25F-2        0.00000   0.00000   0.00000   0.00000   0.00000
  68       25F+3        0.00001   0.00000   0.00000   0.00000   0.00000
  69       25F-3        0.00000   0.00000  -0.00004   0.00000   0.00000
  70       26F 0        0.00000   0.00000   0.00000   0.00001  -0.00001
  71       26F+1        0.00000   0.00000   0.00000   0.00000   0.00000
  72       26F-1        0.00000   0.00000   0.00033   0.00000   0.00000
  73       26F+2        0.00000   0.00003   0.00000  -0.00004  -0.00001
  74       26F-2        0.00000   0.00000   0.00000   0.00000   0.00000
  75       26F+3       -0.00004   0.00000   0.00000   0.00000   0.00000
  76       26F-3        0.00000   0.00000   0.00038   0.00000   0.00000
  77       27F 0        0.00000   0.00000   0.00000  -0.00000   0.00003
  78       27F+1       -0.00001   0.00000   0.00000   0.00000   0.00000
  79       27F-1        0.00000   0.00000  -0.00250   0.00000   0.00000
  80       27F+2        0.00000  -0.00007   0.00000   0.00003  -0.00005
  81       27F-2        0.00000   0.00000   0.00000   0.00000   0.00000
  82       27F+3        0.00010   0.00000   0.00000   0.00000   0.00000
  83       27F-3        0.00000   0.00000  -0.00313   0.00000   0.00000
  84       28F 0        0.00000   0.00041   0.00000  -0.00017   0.00000
  85       28F+1        0.00014   0.00000   0.00000   0.00000   0.00000
  86       28F-1        0.00000   0.00000   0.00219   0.00000   0.00000
  87       28F+2        0.00000  -0.00037   0.00000   0.00031  -0.00002
  88       28F-2        0.00000   0.00000   0.00000   0.00000   0.00000
  89       28F+3       -0.00003   0.00000   0.00000   0.00000   0.00000
  90       28F-3        0.00000   0.00000   0.00258   0.00000   0.00000
  91       29G 0        0.00000  -0.00001   0.00000   0.00004   0.00009
  92       29G+1        0.00001   0.00000   0.00000   0.00000   0.00000
  93       29G-1        0.00000   0.00000  -0.00000   0.00000   0.00000
  94       29G+2        0.00000   0.00000   0.00000   0.00005   0.00014
  95       29G-2        0.00000   0.00000   0.00000   0.00000   0.00000
  96       29G+3       -0.00001   0.00000   0.00000   0.00000   0.00000
  97       29G-3        0.00000   0.00000   0.00000   0.00000   0.00000
  98       29G+4        0.00000   0.00000   0.00000   0.00007   0.00020
  99       29G-4        0.00000   0.00000   0.00000   0.00000   0.00000
 100       30G 0        0.00000   0.00003   0.00000  -0.00013   0.00001
 101       30G+1       -0.00002   0.00000   0.00000   0.00000   0.00000
 102       30G-1        0.00000   0.00000   0.00001   0.00000   0.00000
 103       30G+2        0.00000  -0.00001   0.00000  -0.00017   0.00002
 104       30G-2        0.00000   0.00000   0.00000   0.00000   0.00000
 105       30G+3        0.00003   0.00000   0.00000   0.00000   0.00000
 106       30G-3        0.00000   0.00000  -0.00000   0.00000   0.00000
 107       30G+4        0.00000  -0.00000   0.00000  -0.00023   0.00002
 108       30G-4        0.00000   0.00000   0.00000   0.00000   0.00000
 109       31G 0        0.00000  -0.00004   0.00000   0.00030   0.00001
 110       31G+1        0.00003   0.00000   0.00000   0.00000   0.00000
 111       31G-1        0.00000   0.00000  -0.00001   0.00000   0.00000
 112       31G+2        0.00000   0.00001   0.00000   0.00042   0.00003
 113       31G-2        0.00000   0.00000   0.00000   0.00000   0.00000
 114       31G+3       -0.00005   0.00000   0.00000   0.00000   0.00000
 115       31G-3        0.00000   0.00000   0.00000   0.00000   0.00000
 116       31G+4        0.00000  -0.00000   0.00000   0.00056   0.00003
 117       31G-4        0.00000   0.00000   0.00000   0.00000   0.00000
 118 2   O  1S          0.00000  -0.00000   0.30785   0.30784   0.00001
 119        2S          0.00000   0.00000   0.45229   0.45237   0.00001
 120        3S          0.00000  -0.00002   0.02483   0.02383   0.00001
 121        4S          0.00000   0.00013  -0.01939  -0.01616   0.00002
 122        5S          0.00000  -0.00011   0.01817   0.01002  -0.00079
 123        6PX         0.00000   0.00000   0.00000   0.00000   0.00000
 124        6PY         0.00000   0.00000  -0.00110  -0.00095  -0.00002
 125        6PZ         0.00000  -0.00000   0.00002   0.00003  -0.00000
 126        7PX         0.00001   0.00000   0.00000   0.00000   0.00000
 127        7PY         0.00000  -0.00006   0.00350   0.00190   0.00024
 128        7PZ         0.00000  -0.00000   0.00003  -0.00001   0.00000
 129        8PX        -0.00028   0.00000   0.00000   0.00000   0.00000
 130        8PY         0.00000   0.00004  -0.00367  -0.00077   0.00032
 131        8PZ         0.00000   0.00015  -0.00019   0.00004  -0.00001
 132        9D 0        0.00000  -0.00000  -0.00010  -0.00010  -0.00000
 133        9D+1       -0.00002   0.00000   0.00000   0.00000   0.00000
 134        9D-1        0.00000   0.00001  -0.00000   0.00000  -0.00000
 135        9D+2        0.00000   0.00001  -0.00019  -0.00019  -0.00001
 136        9D-2       -0.00001   0.00000   0.00000   0.00000   0.00000
 137       10D 0        0.00000   0.00001   0.00063   0.00037   0.00006
 138       10D+1        0.00005   0.00000   0.00000   0.00000   0.00000
 139       10D-1        0.00000  -0.00002   0.00001  -0.00001   0.00000
 140       10D+2        0.00000  -0.00005   0.00113   0.00069   0.00009
 141       10D-2        0.00003   0.00000   0.00000   0.00000   0.00000
 142       11F 0        0.00000   0.00000  -0.00000   0.00000   0.00000
 143       11F+1       -0.00000   0.00000   0.00000   0.00000   0.00000
 144       11F-1        0.00000  -0.00000  -0.00013  -0.00010   0.00001
 145       11F+2        0.00000   0.00001   0.00000  -0.00000   0.00000
 146       11F-2       -0.00001   0.00000   0.00000   0.00000   0.00000
 147       11F+3       -0.00001   0.00000   0.00000   0.00000   0.00000
 148       11F-3        0.00000   0.00000  -0.00017  -0.00013   0.00001
 149 3   O  1S          0.00000  -0.00000  -0.30785   0.30784   0.00001
 150        2S          0.00000   0.00000  -0.45229   0.45237   0.00001
 151        3S          0.00000  -0.00002  -0.02483   0.02383   0.00001
 152        4S          0.00000   0.00013   0.01939  -0.01616   0.00002
 153        5S          0.00000  -0.00011  -0.01817   0.01002  -0.00079
 154        6PX         0.00000   0.00000   0.00000   0.00000   0.00000
 155        6PY         0.00000  -0.00000  -0.00110   0.00095   0.00002
 156        6PZ         0.00000  -0.00000  -0.00002   0.00003  -0.00000
 157        7PX         0.00001   0.00000   0.00000   0.00000   0.00000
 158        7PY         0.00000   0.00006   0.00350  -0.00190  -0.00024
 159        7PZ         0.00000  -0.00000  -0.00003  -0.00001   0.00000
 160        8PX        -0.00028   0.00000   0.00000   0.00000   0.00000
 161        8PY         0.00000  -0.00004  -0.00367   0.00077  -0.00032
 162        8PZ         0.00000   0.00015   0.00019   0.00004  -0.00001
 163        9D 0        0.00000  -0.00000   0.00010  -0.00010  -0.00000
 164        9D+1       -0.00002   0.00000   0.00000   0.00000   0.00000
 165        9D-1        0.00000  -0.00001  -0.00000  -0.00000   0.00000
 166        9D+2        0.00000   0.00001   0.00019  -0.00019  -0.00001
 167        9D-2        0.00001   0.00000   0.00000   0.00000   0.00000
 168       10D 0        0.00000   0.00001  -0.00063   0.00037   0.00006
 169       10D+1        0.00005   0.00000   0.00000   0.00000   0.00000
 170       10D-1        0.00000   0.00002   0.00001   0.00001  -0.00000
 171       10D+2        0.00000  -0.00005  -0.00113   0.00069   0.00009
 172       10D-2       -0.00003   0.00000   0.00000   0.00000   0.00000
 173       11F 0        0.00000   0.00000   0.00000   0.00000   0.00000
 174       11F+1       -0.00000   0.00000   0.00000   0.00000   0.00000
 175       11F-1        0.00000   0.00000  -0.00013   0.00010  -0.00001
 176       11F+2        0.00000   0.00001  -0.00000  -0.00000   0.00000
 177       11F-2        0.00001   0.00000   0.00000   0.00000   0.00000
 178       11F+3       -0.00001   0.00000   0.00000   0.00000   0.00000
 179       11F-3        0.00000  -0.00000  -0.00017   0.00013  -0.00001
 180 4   Cl 1S          0.70727   0.70727   0.00000  -0.00000   0.00000
 181        2S         -0.02282  -0.02282   0.00000   0.00000  -0.00000
 182        3S         -0.00738  -0.00737   0.00000   0.00001  -0.00002
 183        4S          0.00294   0.00292   0.00000  -0.00018   0.00008
 184        5S         -0.00275  -0.00280   0.00000   0.00061  -0.00012
 185        6PX        -0.00003  -0.00003   0.00000   0.00001  -0.00000
 186        6PY         0.00000   0.00000   0.00000   0.00000   0.00000
 187        6PZ         0.00002   0.00002   0.00000  -0.00000   0.00000
 188        7PX         0.00006   0.00005   0.00000  -0.00003   0.00002
 189        7PY         0.00000   0.00000  -0.00001   0.00000   0.00000
 190        7PZ        -0.00003  -0.00003   0.00000   0.00001  -0.00001
 191        8PX        -0.00011  -0.00010   0.00000   0.00010  -0.00004
 192        8PY         0.00000   0.00000   0.00004   0.00000   0.00000
 193        8PZ         0.00006   0.00005   0.00000  -0.00005   0.00003
 194        9PX         0.00011   0.00011   0.00000  -0.00026   0.00005
 195        9PY         0.00000   0.00000  -0.00008   0.00000   0.00000
 196        9PZ        -0.00005  -0.00005   0.00000   0.00013  -0.00003
 197       10PX         0.00073   0.00071   0.00000  -0.00016   0.00007
 198       10PY         0.00000   0.00000   0.00041   0.00000   0.00000
 199       10PZ        -0.00037  -0.00054   0.00000   0.00018  -0.00004
 200       11D 0       -0.00002  -0.00000   0.00000  -0.00000  -0.00000
 201       11D+1       -0.00006  -0.00007   0.00000  -0.00001  -0.00002
 202       11D-1        0.00000   0.00000  -0.00000   0.00000   0.00000
 203       11D+2        0.00005   0.00005   0.00000   0.00002   0.00002
 204       11D-2        0.00000   0.00000   0.00001   0.00000   0.00000
 205       12D 0        0.00007   0.00001   0.00000  -0.00002   0.00001
 206       12D+1        0.00021   0.00024   0.00000  -0.00010   0.00008
 207       12D-1        0.00000   0.00000   0.00003   0.00000   0.00000
 208       12D+2       -0.00017  -0.00016   0.00000   0.00002  -0.00006
 209       12D-2        0.00000   0.00000  -0.00006   0.00000   0.00000
 210       13F 0        0.00002   0.00002   0.00000   0.00001   0.00001
 211       13F+1       -0.00000   0.00001   0.00000  -0.00002   0.00001
 212       13F-1        0.00000   0.00000   0.00001   0.00000   0.00000
 213       13F+2       -0.00002  -0.00003   0.00000   0.00003  -0.00002
 214       13F-2        0.00000   0.00000   0.00002   0.00000   0.00000
 215       13F+3        0.00001   0.00001   0.00000  -0.00004   0.00001
 216       13F-3        0.00000   0.00000  -0.00001   0.00000   0.00000
 217 5   Cl 1S         -0.70727   0.70727   0.00000  -0.00000   0.00000
 218        2S          0.02282  -0.02282   0.00000   0.00000  -0.00000
 219        3S          0.00738  -0.00737   0.00000   0.00001  -0.00002
 220        4S         -0.00294   0.00292   0.00000  -0.00018   0.00008
 221        5S          0.00275  -0.00280   0.00000   0.00061  -0.00012
 222        6PX        -0.00003   0.00003   0.00000  -0.00001   0.00000
 223        6PY         0.00000   0.00000   0.00000   0.00000   0.00000
 224        6PZ        -0.00002   0.00002   0.00000  -0.00000   0.00000
 225        7PX         0.00006  -0.00005   0.00000   0.00003  -0.00002
 226        7PY         0.00000   0.00000  -0.00001   0.00000   0.00000
 227        7PZ         0.00003  -0.00003   0.00000   0.00001  -0.00001
 228        8PX        -0.00011   0.00010   0.00000  -0.00010   0.00004
 229        8PY         0.00000   0.00000   0.00004   0.00000   0.00000
 230        8PZ        -0.00006   0.00005   0.00000  -0.00005   0.00003
 231        9PX         0.00011  -0.00011   0.00000   0.00026  -0.00005
 232        9PY         0.00000   0.00000  -0.00008   0.00000   0.00000
 233        9PZ         0.00005  -0.00005   0.00000   0.00013  -0.00003
 234       10PX         0.00073  -0.00071   0.00000   0.00016  -0.00007
 235       10PY         0.00000   0.00000   0.00041   0.00000   0.00000
 236       10PZ         0.00037  -0.00054   0.00000   0.00018  -0.00004
 237       11D 0        0.00002  -0.00000   0.00000  -0.00000  -0.00000
 238       11D+1       -0.00006   0.00007   0.00000   0.00001   0.00002
 239       11D-1        0.00000   0.00000  -0.00000   0.00000   0.00000
 240       11D+2       -0.00005   0.00005   0.00000   0.00002   0.00002
 241       11D-2        0.00000   0.00000  -0.00001   0.00000   0.00000
 242       12D 0       -0.00007   0.00001   0.00000  -0.00002   0.00001
 243       12D+1        0.00021  -0.00024   0.00000   0.00010  -0.00008
 244       12D-1        0.00000   0.00000   0.00003   0.00000   0.00000
 245       12D+2        0.00017  -0.00016   0.00000   0.00002  -0.00006
 246       12D-2        0.00000   0.00000   0.00006   0.00000   0.00000
 247       13F 0       -0.00002   0.00002   0.00000   0.00001   0.00001
 248       13F+1       -0.00000  -0.00001   0.00000   0.00002  -0.00001
 249       13F-1        0.00000   0.00000   0.00001   0.00000   0.00000
 250       13F+2        0.00002  -0.00003   0.00000   0.00003  -0.00002
 251       13F-2        0.00000   0.00000  -0.00002   0.00000   0.00000
 252       13F+3        0.00001  -0.00001   0.00000   0.00004  -0.00001
 253       13F-3        0.00000   0.00000  -0.00001   0.00000   0.00000
                           6         7         8         9        10
                        (B1)--O   (A1)--O   (B1)--O   (A1)--O   (B2)--O
     Eigenvalues --    -9.50909  -9.50909  -7.60400  -7.60168  -7.56780
   1 1   U  1S          0.00000  -0.00000   0.00000  -0.00000   0.00000
   2        2S          0.00000  -0.00002   0.00000  -0.00013   0.00000
   3        3S          0.00000   0.00000   0.00000  -0.00000   0.00000
   4        4S          0.00000   0.00005   0.00000   0.00036   0.00000
   5        5S          0.00000  -0.00020   0.00000  -0.00087   0.00000
   6        6S          0.00000   0.00035   0.00000   0.00060   0.00000
   7        7S          0.00000   0.00009   0.00000   0.00007   0.00000
   8        8S          0.00000  -0.00239   0.00000   0.00010   0.00000
   9        9S          0.00000   0.01147   0.00000  -0.00087   0.00000
  10       10S          0.00000  -0.00214   0.00000   0.00020   0.00000
  11       11PX        -0.00001   0.00000   0.03540   0.00000   0.00000
  12       11PY         0.00000   0.00000   0.00000   0.00000   0.03542
  13       11PZ         0.00000   0.00000   0.00000   0.03541   0.00000
  14       12PX         0.00006   0.00000   0.06592   0.00000   0.00000
  15       12PY         0.00000   0.00000   0.00000   0.00000   0.06563
  16       12PZ         0.00000  -0.00004   0.00000   0.06588   0.00000
  17       13PX        -0.00013   0.00000  -0.34912   0.00000   0.00000
  18       13PY         0.00000   0.00000   0.00000   0.00000  -0.34805
  19       13PZ         0.00000   0.00008   0.00000  -0.34914   0.00000
  20       14PX         0.00030   0.00000   0.59671   0.00000   0.00000
  21       14PY         0.00000   0.00000   0.00000   0.00000   0.59479
  22       14PZ         0.00000  -0.00019   0.00000   0.59710   0.00000
  23       15PX        -0.00047   0.00000   0.57960   0.00000   0.00000
  24       15PY         0.00000   0.00000   0.00000   0.00000   0.58009
  25       15PZ         0.00000   0.00030   0.00000   0.57922   0.00000
  26       16PX         0.00076   0.00000   0.06368   0.00000   0.00000
  27       16PY         0.00000   0.00000   0.00000   0.00000   0.06524
  28       16PZ         0.00000  -0.00049   0.00000   0.06353   0.00000
  29       17PX        -0.00241   0.00000  -0.00996   0.00000   0.00000
  30       17PY         0.00000   0.00000   0.00000   0.00000  -0.01094
  31       17PZ         0.00000   0.00156   0.00000  -0.00942   0.00000
  32       18PX         0.00992   0.00000   0.00341   0.00000   0.00000
  33       18PY         0.00000   0.00000   0.00000   0.00000  -0.00601
  34       18PZ         0.00000  -0.00636   0.00000   0.00304   0.00000
  35       19PX         0.00055   0.00000  -0.00044   0.00000   0.00000
  36       19PY         0.00000   0.00000   0.00000   0.00000   0.00033
  37       19PZ         0.00000  -0.00017   0.00000  -0.00051   0.00000
  38       20D 0        0.00000   0.00003   0.00000   0.00002   0.00000
  39       20D+1        0.00012   0.00000  -0.00028   0.00000   0.00000
  40       20D-1        0.00000   0.00000   0.00000   0.00000  -0.00001
  41       20D+2        0.00000  -0.00008   0.00000  -0.00016   0.00000
  42       20D-2        0.00000   0.00000   0.00000   0.00000   0.00000
  43       21D 0        0.00000  -0.00007   0.00000   0.00046   0.00000
  44       21D+1       -0.00033   0.00000  -0.00005   0.00000   0.00000
  45       21D-1        0.00000   0.00000   0.00000   0.00000   0.00021
  46       21D+2        0.00000   0.00022   0.00000  -0.00014   0.00000
  47       21D-2        0.00000   0.00000   0.00000   0.00000   0.00000
  48       22D 0        0.00000   0.00009   0.00000   0.00004   0.00000
  49       22D+1        0.00062   0.00000  -0.00015   0.00000   0.00000
  50       22D-1        0.00000   0.00000   0.00000   0.00000   0.00005
  51       22D+2        0.00000  -0.00048   0.00000  -0.00017   0.00000
  52       22D-2        0.00000   0.00000   0.00000   0.00000   0.00000
  53       23D 0        0.00000  -0.00005   0.00000   0.00022   0.00000
  54       23D+1       -0.00127   0.00000   0.00052   0.00000   0.00000
  55       23D-1        0.00000   0.00000   0.00000   0.00000   0.00005
  56       23D+2        0.00000   0.00117   0.00000   0.00057   0.00000
  57       23D-2        0.00000   0.00000   0.00000   0.00000   0.00000
  58       24D 0        0.00000  -0.00086   0.00000  -0.00003   0.00000
  59       24D+1       -0.00452   0.00000  -0.00058   0.00000   0.00000
  60       24D-1        0.00000   0.00000   0.00000   0.00000  -0.00015
  61       24D+2        0.00000   0.00368   0.00000  -0.00039   0.00000
  62       24D-2        0.00000   0.00000   0.00000   0.00000   0.00000
  63       25F 0        0.00000  -0.00002   0.00000   0.00110   0.00000
  64       25F+1       -0.00001   0.00000   0.00033   0.00000   0.00000
  65       25F-1        0.00000   0.00000   0.00000   0.00000   0.00184
  66       25F+2        0.00000   0.00000   0.00000   0.00167   0.00000
  67       25F-2        0.00000   0.00000   0.00000   0.00000   0.00000
  68       25F+3        0.00002   0.00000   0.00202   0.00000   0.00000
  69       25F-3        0.00000   0.00000   0.00000   0.00000   0.00264
  70       26F 0        0.00000   0.00006   0.00000  -0.00033   0.00000
  71       26F+1        0.00004   0.00000  -0.00013   0.00000   0.00000
  72       26F-1        0.00000   0.00000   0.00000   0.00000  -0.00050
  73       26F+2        0.00000   0.00000   0.00000  -0.00023   0.00000
  74       26F-2        0.00000   0.00000   0.00000   0.00000   0.00000
  75       26F+3       -0.00008   0.00000  -0.00029   0.00000   0.00000
  76       26F-3        0.00000   0.00000   0.00000   0.00000  -0.00057
  77       27F 0        0.00000  -0.00007   0.00000   0.00043   0.00000
  78       27F+1       -0.00008   0.00000   0.00007   0.00000   0.00000
  79       27F-1        0.00000   0.00000   0.00000   0.00000   0.00045
  80       27F+2        0.00000  -0.00012   0.00000   0.00010   0.00000
  81       27F-2        0.00000   0.00000   0.00000   0.00000   0.00000
  82       27F+3        0.00026   0.00000   0.00018   0.00000   0.00000
  83       27F-3        0.00000   0.00000   0.00000   0.00000   0.00048
  84       28F 0        0.00000   0.00171   0.00000  -0.00034   0.00000
  85       28F+1        0.00059   0.00000  -0.00001   0.00000   0.00000
  86       28F-1        0.00000   0.00000   0.00000   0.00000   0.00145
  87       28F+2        0.00000  -0.00156   0.00000  -0.00001   0.00000
  88       28F-2        0.00000   0.00000   0.00000   0.00000   0.00000
  89       28F+3       -0.00008   0.00000  -0.00019   0.00000   0.00000
  90       28F-3        0.00000   0.00000   0.00000   0.00000   0.00197
  91       29G 0        0.00000  -0.00002   0.00000   0.00004   0.00000
  92       29G+1        0.00002   0.00000   0.00005   0.00000   0.00000
  93       29G-1        0.00000   0.00000   0.00000   0.00000   0.00001
  94       29G+2        0.00000   0.00001   0.00000  -0.00007   0.00000
  95       29G-2        0.00000   0.00000   0.00000   0.00000   0.00000
  96       29G+3       -0.00002   0.00000  -0.00006   0.00000   0.00000
  97       29G-3        0.00000   0.00000   0.00000   0.00000  -0.00007
  98       29G+4        0.00000   0.00000   0.00000  -0.00000   0.00000
  99       29G-4        0.00000   0.00000   0.00000   0.00000   0.00000
 100       30G 0        0.00000   0.00006   0.00000   0.00011   0.00000
 101       30G+1       -0.00004   0.00000   0.00011   0.00000   0.00000
 102       30G-1        0.00000   0.00000   0.00000   0.00000   0.00004
 103       30G+2        0.00000  -0.00002   0.00000  -0.00008   0.00000
[...]
 223        6PY         1.39958
 224        6PZ         1.39529
 225        7PX         0.55827
 226        7PY         0.55541
 227        7PZ         0.55793
 228        8PX         0.35557
 229        8PY         0.38612
 230        8PZ         0.36171
 231        9PX         0.94018
 232        9PY         0.99692
 233        9PZ         0.94333
 234       10PX         0.49126
 235       10PY         0.55045
 236       10PZ         0.51874
 237       11D 0        0.00052
 238       11D+1        0.00130
 239       11D-1        0.00027
 240       11D+2        0.00100
 241       11D-2        0.00066
 242       12D 0        0.00421
 243       12D+1        0.00663
 244       12D-1        0.00176
 245       12D+2        0.00522
 246       12D-2        0.00397
 247       13F 0        0.00013
 248       13F+1        0.00033
 249       13F-1        0.00002
 250       13F+2        0.00039
 251       13F-2        0.00020
 252       13F+3        0.00030
 253       13F-3        0.00023
          Condensed to atoms (all electrons):
               1          2          3          4          5
     1  U   29.277450   0.391817   0.391817   0.189897   0.189897
     2  O    0.391817   7.965516   0.003991   0.009132   0.009132
     3  O    0.391817   0.003991   7.965516   0.009132   0.009132
     4  Cl   0.189897   0.009132   0.009132  17.190206   0.001607
     5  Cl   0.189897   0.009132   0.009132   0.001607  17.190206
 Mulliken charges:
               1
     1  U    1.559122
     2  O   -0.379587
     3  O   -0.379587
     4  Cl  -0.399974
     5  Cl  -0.399974
 Sum of Mulliken charges =  -0.00000
 Mulliken charges with hydrogens summed into heavy atoms:
               1
     1  U    1.559122
     2  O   -0.379587
     3  O   -0.379587
     4  Cl  -0.399974
     5  Cl  -0.399974
 Electronic spatial extent (au):  <R**2>=           1033.6918
 Charge=              0.0000 electrons
 Dipole moment (field-independent basis, Debye):
    X=              0.0000    Y=             -0.0000    Z=              5.0737  Tot=              5.0737
 Quadrupole moment (field-independent basis, Debye-Ang):
   XX=            -80.4354   YY=            -78.6383   ZZ=            -66.7946
   XY=              0.0000   XZ=              0.0000   YZ=              0.0000
 Traceless Quadrupole moment (field-independent basis, Debye-Ang):
   XX=             -5.1460   YY=             -3.3488   ZZ=              8.4948
   XY=              0.0000   XZ=              0.0000   YZ=              0.0000
 Octapole moment (field-independent basis, Debye-Ang**2):
  XXX=              0.0000  YYY=             -0.0000  ZZZ=             47.5260  XYY=             -0.0000
  XXY=             -0.0000  XXZ=             23.8774  XZZ=             -0.0000  YZZ=             -0.0000
  YYZ=             10.2541  XYZ=             -0.0000
 Hexadecapole moment (field-independent basis, Debye-Ang**3):
 XXXX=           -831.0803 YYYY=           -298.7964 ZZZZ=           -246.3897 XXXY=              0.0000
 XXXZ=             -0.0000 YYYX=              0.0000 YYYZ=              0.0000 ZZZX=              0.0000
 ZZZY=              0.0000 XXYY=           -180.9141 XXZZ=           -177.5012 YYZZ=            -89.8148
 XXYZ=              0.0000 YYXZ=              0.0000 ZZXY=              0.0000
 N-N= 5.256383755980D+02 E-N=-4.565821446712D+03  KE= 1.218667061967D+03
 Symmetry A1   KE= 5.502675397961D+02
 Symmetry A2   KE= 6.466702034896D+01
 Symmetry B1   KE= 4.507886277329D+02
 Symmetry B2   KE= 1.529438740893D+02
 Orbital energies and kinetic energies (alpha):
                                 1                 2
   1         (B1)--O        -101.681925        137.099446
   2         (A1)--O        -101.681924        137.099276
   3         (B2)--O         -19.274447         29.110460
   4         (A1)--O         -19.274437         29.111316
   5         (A1)--O         -12.165110          4.797253
   6         (B1)--O          -9.509094         21.560760
   7         (A1)--O          -9.509093         21.561055
   8         (B1)--O          -7.603998          5.115454
   9         (A1)--O          -7.601684          5.115969
  10         (B2)--O          -7.567797          5.108819
  11         (A1)--O          -7.238576         20.565768
  12         (B1)--O          -7.238575         20.565664
  13         (A1)--O          -7.237950         20.568229
  14         (B1)--O          -7.237949         20.568185
  15         (B2)--O          -7.236175         20.573655
  16         (A2)--O          -7.236174         20.573587
  17         (A1)--O          -3.967198          7.297996
  18         (B1)--O          -3.966797          7.299591
  19         (A2)--O          -3.953062          7.285612
  20         (B2)--O          -3.951232          7.285299
  21         (A1)--O          -3.944748          7.271138
  22         (A1)--O          -1.979339          2.809343
  23         (B2)--O          -1.264782          2.412190
  24         (B1)--O          -1.028107          2.303798
  25         (A1)--O          -1.017843          2.405918
  26         (A1)--O          -1.016811          3.214619
  27         (A1)--O          -0.806933          3.161444
  28         (B1)--O          -0.794330          3.245309
  29         (B2)--O          -0.754033          3.300542
  30         (A2)--O          -0.462360          2.017472
  31         (B2)--O          -0.460324          2.052881
  32         (A1)--O          -0.447520          2.617161
  33         (B1)--O          -0.435354          2.868294
  34         (A1)--O          -0.434803          2.871281
  35         (B2)--O          -0.399908          3.947968
  36         (A1)--O          -0.369055          2.442033
  37         (B1)--O          -0.358338          2.337337
  38         (A1)--O          -0.342385          2.223972
  39         (B1)--O          -0.335443          2.430476
  40         (A2)--O          -0.325301          2.456839
  41         (B2)--O          -0.318544          2.680124
  42         (A1)--V          -0.148514          5.532725
  43         (B1)--V          -0.147640          5.742368
  44         (B2)--V          -0.144644          5.806543
  45         (A2)--V          -0.143984          5.781777
  46         (A1)--V          -0.099398          2.353788
  47         (B1)--V          -0.082244          4.804269
  48         (A1)--V          -0.065626          4.098736
  49         (B1)--V          -0.024377          2.405066
  50         (A1)--V          -0.007642          1.520169
  51         (A1)--V           0.034398          0.540105
  52         (B2)--V           0.034416          0.617304
  53         (B1)--V           0.053548          0.675332
  54         (A1)--V           0.066272          1.046806
  55         (B2)--V           0.073491          3.802405
  56         (A2)--V           0.095183          2.146453
  57         (B2)--V           0.095614          2.743125
  58         (A1)--V           0.188892          0.758229
  59         (B2)--V           0.201398          1.724544
  60         (A1)--V           0.225079          1.226568
  61         (B1)--V           0.241226          1.273007
  62         (A2)--V           0.258277          1.167076
  63         (B2)--V           0.258833          1.315873
  64         (A1)--V           0.279506          1.477718
  65         (B1)--V           0.281179          1.371064
  66         (A1)--V           0.309091          1.470271
  67         (B2)--V           0.318033          1.450247
  68         (B1)--V           0.337875          1.565282
  69         (A2)--V           0.348721          1.636383
  70         (A1)--V           0.355241          1.497988
  71         (B1)--V           0.379855          1.744581
  72         (A2)--V           0.392756          1.759127
  73         (B2)--V           0.397843          1.506562
  74         (A1)--V           0.404966          1.543568
  75         (B1)--V           0.415056          1.762062
  76         (A1)--V           0.416922          1.596519
  77         (B2)--V           0.430005          1.901752
  78         (B1)--V           0.430645          1.892335
  79         (A2)--V           0.470497          1.636555
  80         (A1)--V           0.496139          1.496424
  81         (B2)--V           0.530716          1.718152
  82         (B1)--V           0.532959          1.655498
  83         (A1)--V           0.548335          1.626512
  84         (A1)--V           0.607480          1.797170
  85         (B1)--V           0.627825          1.984104
  86         (A1)--V           0.647864          2.520427
  87         (B2)--V           0.648200          1.531287
  88         (A2)--V           0.657509          1.745690
  89         (B2)--V           0.658438          1.948483
  90         (A1)--V           0.682265          2.116599
  91         (B1)--V           0.694838          1.692167
  92         (A1)--V           0.713975          2.114396
  93         (A2)--V           0.756757          1.806801
  94         (B1)--V           0.758199          1.899662
  95         (B2)--V           0.759508          1.492062
  96         (A1)--V           0.793789          2.141576
  97         (B2)--V           0.884621          2.027999
  98         (A1)--V           1.023759          4.105202
  99         (B1)--V           1.071963          4.267370
 100         (A1)--V           1.159655          3.900586
 101         (A1)--V           1.251098          3.668310
 102         (B1)--V           1.298551          3.738839
 103         (B2)--V           1.386589          4.047647
 104         (B1)--V           1.396101          3.777723
 105         (A1)--V           1.407741          3.216335
 106         (A2)--V           1.424915          4.098379
 107         (A1)--V           1.443325          4.401559
 108         (B1)--V           1.458893          4.439590
 109         (A1)--V           1.496720          3.816481
 110         (B1)--V           1.499789          3.301441
 111         (B2)--V           1.506386          3.845652
 112         (B2)--V           1.580651          3.203572
 113         (A2)--V           1.582119          3.250017
 114         (B2)--V           1.596426          3.060969
 115         (A2)--V           1.608611          3.072119
 116         (A1)--V           1.685187          3.949825
 117         (A2)--V           1.764517          4.963762
 118         (A2)--V           1.775296          4.754202
 119         (B2)--V           1.777310          5.060962
 120         (A1)--V           1.781675          4.892684
 121         (B1)--V           1.796798          4.782567
 122         (A1)--V           1.825571          4.760932
 123         (B2)--V           1.826559          4.676805
 124         (B1)--V           1.891691          4.954497
 125         (B2)--V           1.902903          4.472448
 126         (A1)--V           1.908165          4.412982
 127         (A1)--V           1.922265          4.440719
 128         (B1)--V           1.928334          4.478229
 129         (B1)--V           1.964748          4.953191
 130         (A2)--V           1.996858          4.138063
 131         (B2)--V           1.999456          4.401336
 132         (B2)--V           2.089084          4.165468
 133         (A1)--V           2.090111          3.605639
 134         (A2)--V           2.098106          3.216526
 135         (B1)--V           2.101466          3.219993
 136         (A2)--V           2.107896          3.222218
 137         (A1)--V           2.109245          3.262660
 138         (B1)--V           2.116604          3.519611
 139         (B2)--V           2.140351          3.361818
 140         (A1)--V           2.144175          3.928530
 141         (B2)--V           2.153322          3.575453
 142         (B1)--V           2.169083          3.860706
 143         (A1)--V           2.208271          4.819169
 144         (B1)--V           2.210038          4.784750
 145         (B1)--V           2.255309          6.851415
 146         (A2)--V           2.262757          6.672486
 147         (A1)--V           2.279797          4.635720
 148         (A1)--V           2.297047          6.900774
 149         (B2)--V           2.300118          6.425349
 150         (B2)--V           2.323593          5.712681
 151         (B1)--V           2.347005          5.034811
 152         (A1)--V           2.357650          5.230290
 153         (A2)--V           2.433372          5.201741
 154         (B1)--V           2.451710          5.900279
 155         (A1)--V           2.469713          6.029795
 156         (A2)--V           2.475397          6.105435
 157         (B1)--V           2.516905          6.205889
 158         (A1)--V           2.524947          6.190943
 159         (B2)--V           2.526990          6.241967
 160         (B2)--V           2.554563          6.311447
 161         (A2)--V           2.571045          6.332760
 162         (A1)--V           2.687708          7.268624
 163         (A1)--V           2.775813          6.922755
 164         (B1)--V           2.799451          6.902896
 165         (B2)--V           2.990282          7.155255
 166         (A1)--V           3.008959          7.272464
 167         (A2)--V           3.041350          7.075854
 168         (B1)--V           3.055669          7.083538
 169         (A1)--V           3.087434          7.632072
 170         (B2)--V           3.134075          7.791014
 171         (A1)--V           4.000019          9.007585
 172         (B2)--V           4.436047          9.126890
 173         (B2)--V           4.514136          8.979980
 174         (B2)--V           4.642372         11.948149
 175         (A2)--V           4.671362         11.814844
 176         (B1)--V           4.737391         12.556760
 177         (A1)--V           4.797650         12.497598
 178         (B1)--V           4.955597         11.789153
 179         (A1)--V           4.961400         11.812697
 180         (A1)--V           5.034320          7.319286
 181         (B1)--V           5.056546          7.719241
 182         (A2)--V           5.059490          6.450992
 183         (B2)--V           5.061784          6.450330
 184         (B2)--V           5.071467          8.472968
 185         (A2)--V           5.073373          8.471432
 186         (B1)--V           5.074903          6.587886
 187         (A1)--V           5.083238          6.870502
 188         (B2)--V           5.166788          7.220496
 189         (A2)--V           5.181032          7.384889
 190         (A1)--V           5.194632          9.865735
 191         (A1)--V           5.318357          7.056660
 192         (B1)--V           5.327971          7.036822
 193         (B2)--V           5.417518         11.306403
 194         (A1)--V           6.099055         13.108314
 195         (A1)--V           6.113315         11.850572
 196         (B1)--V           6.124733         12.493629
 197         (B1)--V           6.164247         14.951895
 198         (A2)--V           6.165642         16.326245
 199         (B2)--V           6.176903         16.219587
 200         (A1)--V           6.180397         15.433518
 201         (A2)--V           6.263256         10.711758
 202         (B2)--V           6.264939         10.168158
 203         (B2)--V           6.274928         10.692234
 204         (A1)--V           6.303855         13.164989
 205         (B1)--V           6.310472         13.813313
 206         (A2)--V           6.330647         10.231501
 207         (A1)--V           6.396329         13.654883
 208         (B1)--V           6.410737         13.841889
 209         (B2)--V           6.556434         11.191047
 210         (A1)--V           6.634244          9.711393
 211         (B1)--V           6.644046          9.733399
 212         (A1)--V           6.844455         11.183610
 213         (B2)--V           7.078251         14.243052
 214         (A2)--V           7.110469         14.102510
 215         (A1)--V           7.175149         16.260067
 216         (B2)--V           7.556905         12.426502
 217         (A1)--V           8.139024         16.259136
 218         (B2)--V           8.150903         16.104193
 219         (A2)--V           8.180425         16.140185
 220         (B1)--V           8.281076         16.375605
 221         (A1)--V           9.647134         17.308350
 222         (B1)--V          10.766498         33.603060
 223         (A2)--V          10.778303         33.582330
 224         (A1)--V          10.780097         33.608794
 225         (B2)--V          10.795931         33.609016
 226         (B1)--V          10.986486         33.600696
 227         (A1)--V          11.022769         33.592759
 228         (A2)--V          13.372058         34.654356
 229         (B2)--V          13.381702         34.652454
 230         (A1)--V          13.394876         34.638058
 231         (B1)--V          13.395903         34.637621
 232         (A1)--V          13.438243         34.636037
 233         (B1)--V          13.460056         34.634427
 234         (B2)--V          13.770794         34.570114
 235         (A2)--V          13.773268         34.568422
 236         (A1)--V          14.260327         34.567405
 237         (A1)--V          21.463864         43.541069
 238         (B1)--V          21.531170         43.659576
 239         (B2)--V          21.749886         43.998799
 240         (A1)--V          25.119898         44.412698
 241         (B1)--V          25.180791         44.477233
 242         (A1)--V          32.176308        437.412662
 243         (A1)--V          43.732432        108.737284
 244         (B2)--V          43.971444        108.989624
 245         (A1)--V          47.893620         92.979771
 246         (B1)--V          47.952388         93.018885
 247         (B2)--V          48.146031         93.132826
 248         (A1)--V          59.199152         43.862793
 249         (A1)--V         122.134785        236.534269
 250         (B1)--V         122.215912        236.623161
 251         (B2)--V         122.471692        236.876917
 252         (A1)--V         229.193119        139.221332
 253         (A1)--V         673.719085       1054.458726
 Total kinetic energy from orbitals= 1.218667061967D+03
 No NMR shielding tensors so no spin-rotation constants.
 Leave Link  601 at Wed Jan 12 15:02:31 2022, MaxMem=  1048576000 cpu:               1.8 elap:               0.5
 (Enter /home/pcmt/gaussian/g16.C.01/g16/l9999.exe)

 Test job not archived.
 1\1\GINC-U-0-5\SP\RPBE1PBE\Gen\Cl2O2U1\VALLET\12-Jan-2022\0\\#p PBE1PB
 E/GEN GFInput GFPrint 5D 7F IOP(6/7=3, 4/69=2, 6/10=1) Pseudo=Read Emp
 iricalDispersion=GD3BJ Symm=(Loose) Int=(UltraFine) Guess=(CheckPoint)
  Geom=CheckPoint Scf=(NoVarAcc,MaxCycle=100,conver=8) Output=WFX\\[UO2
 Cl4]2- - PBE0+D3BJ - GS\\0,1\U,0,0.,0.0866906808,0.\O,0,-1.728950101,0
 .0866917548,0.\O,0,1.728950101,0.0866917548,0.\Cl,0,0.,-1.2360774784,-
 2.1377754735\Cl,0,0.,-1.2360774784,2.1377754735\\Version=ES64L-G16RevC
 .01\State=1-A1\HF=-1547.6420601\RMSD=9.923e-09\Dipole=0.,1.9961493,0.\
 Quadrupole=-2.4897785,6.3156707,-3.8258922,0.,0.,0.\PG=C02V [C2(U1),SG
 V(O2),SGV'(Cl2)]\\@

 Writing a WFNX file to "gs-uo2_cl2.linear.pbe0-d3.QTAIM.wfx"


 IF YOU BELIEVE CERTAIN WORDS, YOU BELIEVE THEIR HIDDEN ARGUMENTS.
 WHEN YOU BELIEVE SOMETHING IS RIGHT OR WRONG, TRUE OR FALSE, 
 YOU BELIEVE THE ASSUMPTIONS IN THE WORDS WHICH EXPRESS THE ARGUMENTS.
 SUCH ASSUMPTIONS ARE OFTEN FULL OF HOLES, BUT REMAIN MOST PRECIOUS 
 TO THE CONVINCED.

                 -- THE OPEN-ENDED PROOF FROM THE PANOPLIA PROPHETICA
                    CHILDREN OF DUNE BY FRANK HERBERT
 Job cpu time:       0 days  0 hours 20 minutes 15.5 seconds.
 Elapsed time:       0 days  0 hours  6 minutes 26.6 seconds.
 File lengths (MBytes):  RWF=     29 Int=      0 D2E=      0 Chk=      6 Scr=      1
 Normal termination of Gaussian 16 at Wed Jan 12 15:02:32 2022.
