

 Parallel Execution: Process Information
 ==============================================================================
 Rank   Node Name                              NodeID   MyNodeRank  NodeMaster
    0   u-5-3.local                               0          0          0
    1   u-5-3.local                               0          1         -1
    2   u-5-3.local                               0          2         -1
    3   u-5-3.local                               0          3         -1
    4   u-5-3.local                               0          4         -1
    5   u-5-3.local                               0          5         -1
    6   u-5-3.local                               0          6         -1
    7   u-5-3.local                               0          7         -1
    8   u-5-3.local                               0          8         -1
    9   u-5-3.local                               0          9         -1
   10   u-5-3.local                               0         10         -1
   11   u-5-3.local                               0         11         -1
   12   u-5-3.local                               1          0          1
   13   u-5-3.local                               1          1         -1
   14   u-5-3.local                               1          2         -1
   15   u-5-3.local                               1          3         -1
   16   u-5-3.local                               1          4         -1
   17   u-5-3.local                               1          5         -1
   18   u-5-3.local                               1          6         -1
   19   u-5-3.local                               1          7         -1
   20   u-5-3.local                               1          8         -1
   21   u-5-3.local                               1          9         -1
   22   u-5-3.local                               1         10         -1
   23   u-5-3.local                               1         11         -1
 ==============================================================================


May use up to 31144MB of RAM as shared memory on node 0
May use up to 31250MB of RAM as shared memory on node 1

 *******************************************************************************
 *                                                                             *
 *  --------------------------------                                           *
 *   Amsterdam Modeling Suite (AMS)              2021.106                      *
 *  --------------------------------                                           *
 *                                               r99350 2021-12-03             *
 *                                                                             *
 *                                                                             *
 *                              =================                              *
 *                              |               |                              *
 *                              |     A M S     |                              *
 *                              |               |                              *
 *                              =================                              *
 *                                                                             *
 *                                                                             *
 *   Online information and documentation:  https://www.scm.com/support/       *
 *   E-mail:  support@scm.com   info@scm.com                                   *
 *                                                                             *
 *   Scientific publications using AMS results must be properly referenced     *
 *   See the User Manuals (or the web site) for recommended citations          *
 *   The terms and conditions of the End User License Agreement apply to       *
 *   the use of AMS, https://www.scm.com/license-terms/                        *
 *                                                                             *
 **********************  x86_64_linux_intel / intelmpi  ************************
 
 Licensed to: Dr. Val?rie Vallet / Laboratoire PhLAM UMR 8523 / Villeneuve d'Ascq Cedex / FRANCE 2023-02-21 11:49:39
 SCM User ID: u10325
  
 AMS 2021.106  RunTime: Feb22-2023 10:41:28  ShM Nodes: 2  Procs: 24

 AMS jobname: abs-uo2_2cl_2phen.tddft-camb3lyp.SO
 AMS jobid  : 1468922292

 Start   directory: /home/vallet/Bent-Uranyl/uo2_2cl_2phen/uo2_2cl_2phen/bent/geom-pbe0-d3-gp/ams-absorption-emission/fullkernel/
 Results directory: /home/vallet/Bent-Uranyl/uo2_2cl_2phen/uo2_2cl_2phen/bent/geom-pbe0-d3-gp/ams-absorption-emission/fullkernel/abs-uo2_2cl_2phen.tddft-camb3lyp.SO.results/
 Scratch directory: /state/partition1/vallet/928838.phlam-s-sakura/amstmp_abs-uo2_2cl_2phen.tddft-camb3lyp.SO_kid0.1468922292/


 Communication costs MPI_COMM_WORLD:      2.996 usec per message,   0.0121 usec per 8-byte item
 Communication costs for intra-node:      1.850 usec per message,   0.0077 usec per 8-byte item

 RNG seed: 1527241136 -1360851567 -240588651 118740947 -1869850513 859121398 -991564344 1843910758



                     *************************************************************************
                     *  ADF 2021.106  RunTime: Feb22-2023 10:41:29  ShM Nodes: 2  Procs: 24  *
                     *************************************************************************
  
       ****************************
       * SINGLE POINT CALCULATION *
       ****************************
 
--------
Geometry
--------
Formula: C24H16Cl2N4O2U
Atoms
  Index Symbol   x (angstrom)   y (angstrom)   z (angstrom)
      1      U     0.00000000     0.00000000     0.11721400
      2      O     0.00000000     1.73393500     0.38139900
      3      O     0.00000000    -1.73393500     0.38139900
      4      N     1.36995000     0.00000000     2.42045900
      5      C     2.68995700     0.00000000     2.42787200
      6      H     3.16412600     0.00000000     1.45286600
      7      C     3.44974600     0.00000000     3.60236300
      8      H     4.52990700     0.00000000     3.53387300
      9      C     2.80539200     0.00000000     4.80806300
     10      H     3.35580900     0.00000000     5.74281800
     11      C     1.40297800     0.00000000     4.83566000
     12      C     0.67546800     0.00000000     6.06036300
     13      H     1.23217300     0.00000000     6.99076100
     14      C    -0.67546800     0.00000000     6.06036300
     15      H    -1.23217300     0.00000000     6.99076100
     16      C    -1.40297800     0.00000000     4.83566000
     17      C    -2.80539200     0.00000000     4.80806300
     18      H    -3.35580900     0.00000000     5.74281800
     19      C    -3.44974600     0.00000000     3.60236300
     20      H    -4.52990700     0.00000000     3.53387300
     21      C    -2.68995700     0.00000000     2.42787200
     22      H    -3.16412600     0.00000000     1.45286600
     23      N    -1.36995000     0.00000000     2.42045900
     24      C    -0.71848900     0.00000000     3.60199900
     25      C     0.71848900     0.00000000     3.60199900
     26     Cl     2.49785300     0.00000000    -0.79785000
     27     Cl    -2.49785300     0.00000000    -0.79785000
     28      N     0.00000000     1.35220700    -2.32154000
     29      C     0.00000000     2.66693700    -2.31220300
     30      H     0.00000000     3.13154600    -1.33352200
     31      C     0.00000000     3.44120000    -3.47757100
     32      H     0.00000000     4.52123900    -3.40245300
     33      C     0.00000000     2.80836100    -4.69199800
     34      H     0.00000000     3.37051700    -5.61982000
     35      C     0.00000000     1.40666700    -4.73370800
     36      C     0.00000000     0.67607700    -5.95812400
     37      H     0.00000000     1.23036600    -6.89028800
     38      C     0.00000000    -0.67607700    -5.95812400
     39      H     0.00000000    -1.23036600    -6.89028800
     40      C     0.00000000    -1.40666700    -4.73370800
     41      C     0.00000000    -2.80836100    -4.69199800
     42      H     0.00000000    -3.37051700    -5.61982000
     43      C     0.00000000    -3.44120000    -3.47757100
     44      H     0.00000000    -4.52123900    -3.40245300
     45      C     0.00000000    -2.66693700    -2.31220300
     46      H     0.00000000    -3.13154600    -1.33352200
     47      N     0.00000000    -1.35220700    -2.32154000
     48      C     0.00000000    -0.71778400    -3.50376300
     49      C     0.00000000     0.71778400    -3.50376300
 
Total System Charge             0.00000
Bonding info available!
 
 
----------------
ADF Engine Input
----------------
 
 Basis
 Type TZ2P
 Core None
 End
 AllPoints Yes
 XC
 libxc CAM-B3LYP
 End
 Relativity
 Level Spin-Orbit
 End
 Symmetry NOSYM
 Excitations
 Lowest 16
 NTO Yes
 Davidson
 End
 FullKernel Yes
 End
 

 Title: *** (NO TITLE) ***

 *** adf ***



 ===========================
 A T T A C H E D   F I L E S
 ===========================
  
 Restart
 /home/vallet/Bent-Uranyl/uo2_2cl_2phen/uo2_2cl_2phen/bent/geom-pbe0-d3-gp/ams-a
 bsorption-emission/fullkernel/dep-adf.rkf*** adf ***



 ===============================
 M O D E L   P A R A M E T E R S
 ===============================
  
 Range separated functional parameters:
 RANGESEP OMEGA=    0.330000 ALPHA=    0.190000 BETA=    0.460000 ERF-LONGRANGE 
                                                                                
   
 DENSITY FUNCTIONAL POTENTIAL (scf)

   *** Range Separated Functional ***

 Regions:
   LibXC version: 5. 1. 2
   Exchange-correlation  T T T T F F F T T F F F F F F F F F F F F
   HF parameter =   0.65000000
   LIBXC GAMMA=    0.330000 ALPHA=    0.650000 BETA=   -0.460000
   CAM version of B3LYP (Hybrid GGA)
[1] T. Yanai, D. P. Tew, and N. C. Handy, Chem. Phys. Lett. 393, 51 (2004)

 SPIN  (restricted / unrestr.)
    Molecule:                          Restricted                               
    Fragments:                         Restricted                               

 OTHER ASPECTS
    Relativistic Corrections:          Spin-Orbit (ZORA,MAPA)                  == Not Default ==

    Nuclear Charge Density Model:      Point Charge Nuclei                      
    Core Treatment:                    Frozen Orbital(s)                        

    Hyperfine or Zeeman Interaction:   ---                                      


 Fragment File(s)
 ----------------
 U:
         file : /home/vallet/Bent-Uranyl/uo2_2cl_2phen/uo2_2cl_2phen/bent/geom-pbe0-d3-gp/ams-absorption-emission/fullkernel/abs-uo2_2cl_2phen.tddft-camb3lyp.SO.results/t21.6C1485AF.U
         jobid: 0
         title: Uranium (TZ2P, all electron)
 O:
         file : /home/vallet/Bent-Uranyl/uo2_2cl_2phen/uo2_2cl_2phen/bent/geom-pbe0-d3-gp/ams-absorption-emission/fullkernel/abs-uo2_2cl_2phen.tddft-camb3lyp.SO.results/t21.1786ABF1.O
         jobid: 0
         title: Oxygen (TZ2P)
 N:
         file : /home/vallet/Bent-Uranyl/uo2_2cl_2phen/uo2_2cl_2phen/bent/geom-pbe0-d3-gp/ams-absorption-emission/fullkernel/abs-uo2_2cl_2phen.tddft-camb3lyp.SO.results/t21.3C40D2C.N
         jobid: 0
         title: Nitrogen (TZ2P)
 C:
         file : /home/vallet/Bent-Uranyl/uo2_2cl_2phen/uo2_2cl_2phen/bent/geom-pbe0-d3-gp/ams-absorption-emission/fullkernel/abs-uo2_2cl_2phen.tddft-camb3lyp.SO.results/t21.5D40A1EA.C
         jobid: 0
         title: Carbon (TZ2P)
 H:
         file : /home/vallet/Bent-Uranyl/uo2_2cl_2phen/uo2_2cl_2phen/bent/geom-pbe0-d3-gp/ams-absorption-emission/fullkernel/abs-uo2_2cl_2phen.tddft-camb3lyp.SO.results/t21.49E308CA.H
         jobid: 0
         title: Hydrogen (TZ2P)
 Cl:
         file : /home/vallet/Bent-Uranyl/uo2_2cl_2phen/uo2_2cl_2phen/bent/geom-pbe0-d3-gp/ams-absorption-emission/fullkernel/abs-uo2_2cl_2phen.tddft-camb3lyp.SO.results/t21.37D265EA.Cl
         jobid: 0
         title: Chlorine (TZ2P)



 ===============
 G E O M E T R Y  ***  3D  Molecule  ***
 ===============
  

 ATOMS
 =====                            X Y Z                    CHARGE
                                (Angstrom)             Nucl     +Core       At.Mass
                       --------------------------    ----------------       -------
    1  U               0.0000    0.0000    0.1172     92.00     92.00      238.0508
    2  O               0.0000    1.7339    0.3814      8.00      8.00       15.9949
    3  O               0.0000   -1.7339    0.3814      8.00      8.00       15.9949
    4  N               1.3700    0.0000    2.4205      7.00      7.00       14.0031
    5  C               2.6900    0.0000    2.4279      6.00      6.00       12.0000
    6  H               3.1641    0.0000    1.4529      1.00      1.00        1.0078
    7  C               3.4497    0.0000    3.6024      6.00      6.00       12.0000
    8  H               4.5299    0.0000    3.5339      1.00      1.00        1.0078
    9  C               2.8054    0.0000    4.8081      6.00      6.00       12.0000
   10  H               3.3558    0.0000    5.7428      1.00      1.00        1.0078
   11  C               1.4030    0.0000    4.8357      6.00      6.00       12.0000
   12  C               0.6755    0.0000    6.0604      6.00      6.00       12.0000
   13  H               1.2322    0.0000    6.9908      1.00      1.00        1.0078
   14  C              -0.6755    0.0000    6.0604      6.00      6.00       12.0000
   15  H              -1.2322    0.0000    6.9908      1.00      1.00        1.0078
   16  C              -1.4030    0.0000    4.8357      6.00      6.00       12.0000
   17  C              -2.8054    0.0000    4.8081      6.00      6.00       12.0000
   18  H              -3.3558    0.0000    5.7428      1.00      1.00        1.0078
   19  C              -3.4497    0.0000    3.6024      6.00      6.00       12.0000
   20  H              -4.5299    0.0000    3.5339      1.00      1.00        1.0078
   21  C              -2.6900    0.0000    2.4279      6.00      6.00       12.0000
   22  H              -3.1641    0.0000    1.4529      1.00      1.00        1.0078
   23  N              -1.3700    0.0000    2.4205      7.00      7.00       14.0031
   24  C              -0.7185    0.0000    3.6020      6.00      6.00       12.0000
   25  C               0.7185    0.0000    3.6020      6.00      6.00       12.0000
   26  Cl              2.4979    0.0000   -0.7978     17.00     17.00       34.9689
   27  Cl             -2.4979    0.0000   -0.7978     17.00     17.00       34.9689
   28  N               0.0000    1.3522   -2.3215      7.00      7.00       14.0031
   29  C               0.0000    2.6669   -2.3122      6.00      6.00       12.0000
   30  H               0.0000    3.1315   -1.3335      1.00      1.00        1.0078
   31  C               0.0000    3.4412   -3.4776      6.00      6.00       12.0000
   32  H               0.0000    4.5212   -3.4025      1.00      1.00        1.0078
   33  C               0.0000    2.8084   -4.6920      6.00      6.00       12.0000
   34  H               0.0000    3.3705   -5.6198      1.00      1.00        1.0078
   35  C               0.0000    1.4067   -4.7337      6.00      6.00       12.0000
   36  C               0.0000    0.6761   -5.9581      6.00      6.00       12.0000
   37  H               0.0000    1.2304   -6.8903      1.00      1.00        1.0078
   38  C               0.0000   -0.6761   -5.9581      6.00      6.00       12.0000
   39  H               0.0000   -1.2304   -6.8903      1.00      1.00        1.0078
   40  C               0.0000   -1.4067   -4.7337      6.00      6.00       12.0000
   41  C               0.0000   -2.8084   -4.6920      6.00      6.00       12.0000
   42  H               0.0000   -3.3705   -5.6198      1.00      1.00        1.0078
   43  C               0.0000   -3.4412   -3.4776      6.00      6.00       12.0000
   44  H               0.0000   -4.5212   -3.4025      1.00      1.00        1.0078
   45  C               0.0000   -2.6669   -2.3122      6.00      6.00       12.0000
   46  H               0.0000   -3.1315   -1.3335      1.00      1.00        1.0078
   47  N               0.0000   -1.3522   -2.3215      7.00      7.00       14.0031
   48  C               0.0000   -0.7178   -3.5038      6.00      6.00       12.0000
   49  C               0.0000    0.7178   -3.5038      6.00      6.00       12.0000


 FRAGMENTS
 =========                                     Atoms in this Fragment     Cart. coord.s (Angstrom)
                                               -------------------------------------------------------
    1  U                                                 1  U            0.0000    0.0000    0.1172
    2  O                                                 2  O            0.0000    1.7339    0.3814
    3  O                                                 3  O            0.0000   -1.7339    0.3814
    4  N                                                 4  N            1.3700    0.0000    2.4205
    5  N                                                23  N           -1.3700    0.0000    2.4205
    6  N                                                28  N            0.0000    1.3522   -2.3215
    7  N                                                47  N            0.0000   -1.3522   -2.3215
    8  C                                                 5  C            2.6900    0.0000    2.4279
    9  C                                                 7  C            3.4497    0.0000    3.6024
   10  C                                                 9  C            2.8054    0.0000    4.8081
   11  C                                                11  C            1.4030    0.0000    4.8357
   12  C                                                12  C            0.6755    0.0000    6.0604
   13  C                                                14  C           -0.6755    0.0000    6.0604
   14  C                                                16  C           -1.4030    0.0000    4.8357
   15  C                                                17  C           -2.8054    0.0000    4.8081
   16  C                                                19  C           -3.4497    0.0000    3.6024
   17  C                                                21  C           -2.6900    0.0000    2.4279
   18  C                                                24  C           -0.7185    0.0000    3.6020
   19  C                                                25  C            0.7185    0.0000    3.6020
   20  C                                                29  C            0.0000    2.6669   -2.3122
   21  C                                                31  C            0.0000    3.4412   -3.4776
   22  C                                                33  C            0.0000    2.8084   -4.6920
   23  C                                                35  C            0.0000    1.4067   -4.7337
   24  C                                                36  C            0.0000    0.6761   -5.9581
   25  C                                                38  C            0.0000   -0.6761   -5.9581
   26  C                                                40  C            0.0000   -1.4067   -4.7337
   27  C                                                41  C            0.0000   -2.8084   -4.6920
   28  C                                                43  C            0.0000   -3.4412   -3.4776
   29  C                                                45  C            0.0000   -2.6669   -2.3122
   30  C                                                48  C            0.0000   -0.7178   -3.5038
   31  C                                                49  C            0.0000    0.7178   -3.5038
   32  H                                                 6  H            3.1641    0.0000    1.4529
   33  H                                                 8  H            4.5299    0.0000    3.5339
   34  H                                                10  H            3.3558    0.0000    5.7428
   35  H                                                13  H            1.2322    0.0000    6.9908
   36  H                                                15  H           -1.2322    0.0000    6.9908
   37  H                                                18  H           -3.3558    0.0000    5.7428
   38  H                                                20  H           -4.5299    0.0000    3.5339
   39  H                                                22  H           -3.1641    0.0000    1.4529
   40  H                                                30  H            0.0000    3.1315   -1.3335
   41  H                                                32  H            0.0000    4.5212   -3.4025
   42  H                                                34  H            0.0000    3.3705   -5.6198
   43  H                                                37  H            0.0000    1.2304   -6.8903
   44  H                                                39  H            0.0000   -1.2304   -6.8903
   45  H                                                42  H            0.0000   -3.3705   -5.6198
   46  H                                                44  H            0.0000   -4.5212   -3.4025
   47  H                                                46  H            0.0000   -3.1315   -1.3335
   48  Cl                                               26  Cl           2.4979    0.0000   -0.7978
   49  Cl                                               27  Cl          -2.4979    0.0000   -0.7978



 =====================================
 S Y M M E T R Y ,   E L E C T R O N S
 =====================================
  
 Symmetry: NOSYM

 Double Group Irreducible Representations (spinor symmetry)
 -----------------------------------------------------------
 A1/2

 Symmetry is NOT used when fitting density


 Configuration of Valence Electrons
 ==================================
 ( determined in the SCF procedure )

 Total:   330

 Net Charge: 0 (Nuclei minus Electrons)

 Aufbau principle for MO occupations will be applied through SCF cycle no.     150
 Thereafter, the program will assign electrons to MOs that are spatially
 similar to the occupied MOs in a "reference" cycle ("KeepOrbitals").
 The reference cycle is always the PREVIOUS cycle: it will evolve with
 the SCF procedure.
1
 ***************************************************************************************************



                                      ****************************************
                                      *  B U I L D : (Fragments, Functions)  *
                                      ****************************************
  

 Total nr. of (C)SFOs (summation over all irreps) :  1159

 Specify PRINT SFO in the input file to get a full list

 Nr. of SFOs for ir.rep.           A :  1159



 ================================
 (Slater-type)  F U N C T I O N S  ***  (Basis and Fit)  ***
 ================================
  

 Atom Type    1  (U)
 ==============

 Valence Basis Sets:  43
 -----------------------
   1 S 1060.000000
   1 S  245.000000
   1 S  108.800000
   2 S  134.900000
   2 S   47.200000
   3 S   60.000000
   3 S   25.900000
   4 S   15.800000
   4 S   11.100000
   5 S   10.450000
   5 S    7.250000
   6 S    5.000000
   6 S    3.300000
   7 S    2.350000
   7 S    1.550000
   7 S    1.020000
   2 P  245.000000
   2 P   85.500000
   2 P   44.200000
   3 P   25.100000
   3 P   18.100000
   4 P   17.900000
   4 P   12.300000
   5 P    8.650000
   5 P    6.000000
   6 P    4.450000
   6 P    3.000000
   6 P    2.100000
   3 D   33.250000
   3 D   22.050000
   4 D   15.250000
   4 D   10.550000
   5 D    7.250000
   5 D    4.650000
   6 D    2.900000
   6 D    1.600000
   6 D    0.880000
   4 F   17.450000
   4 F    9.600000
   5 F    5.800000
   5 F    3.000000
   5 F    1.390000
   7 P    1.550000

 Charge Fitting Sets (for the computation of the Coulomb Potential):  87
 -----------------------------------------------------------------------
   1 S 2120.000000
   1 S 1594.965000
   1 S 1199.960000
   1 S  902.780000
   1 S  679.200000
   1 S  510.990000
   1 S  384.440000
   1 S  289.230000
   1 S  217.600000
   1 S  129.260000
   2 S  142.240000
   2 S   95.100000
   3 S   93.370000
   3 S   66.470000
   4 S   62.580000
   4 S   46.380000
   5 S   42.820000
   5 S   32.660000
   6 S   29.850000
   6 S   23.270000
   7 S   21.150000
   7 S   16.770000
   8 S   15.210000
   8 S   12.230000
   9 S   11.070000
   9 S    9.010000
  10 S    8.150000
  10 S    6.700000
  11 S    6.070000
  11 S    5.030000
  12 S    4.550000
  12 S    3.810000
  12 S    3.180000
  13 S    2.880000
  13 S    2.420000
  13 S    2.040000
   2 P  153.000000
   3 P  127.690000
   4 P  104.620000
   5 P   85.360000
   6 P   69.720000
   7 P   57.130000
   7 P   40.980000
   8 P   33.710000
   8 P   24.670000
   9 P   20.380000
   9 P   15.180000
  10 P   12.590000
  10 P    9.510000
  11 P    7.920000
  11 P    6.060000
  12 P    5.070000
  12 P    3.920000
  13 P    3.290000
  13 P    2.570000
   3 D  130.850000
   4 D   91.890000
   5 D   65.340000
   6 D   47.080000
   7 D   34.350000
   8 D   25.360000
   9 D   18.910000
   9 D   12.740000
  10 D    9.600000
  10 D    6.590000
  11 D    5.010000
  11 D    3.500000
  12 D    2.680000
  12 D    1.900000
   4 F  118.400000
   5 F   72.780000
   6 F   45.920000
   7 F   29.630000
   8 F   19.500000
   9 F   13.050000
  10 F    8.870000
  10 F    5.510000
  11 F    3.800000
  11 F    2.410000
   5 G   53.800000
   6 G   31.220000
   7 G   18.640000
   8 G   11.410000
   9 G    7.140000
  10 G    4.550000
  11 G    2.950000
  11 G    1.760000

 Atom Type    2  (O)
 ==============

 Valence Basis Sets:  10
 -----------------------
   1 S    9.800000
   1 S    6.800000
   2 S    7.580000
   2 S    2.880000
   2 S    1.720000
   2 P    4.080000
   2 P    2.080000
   2 P    1.120000
   3 D    2.000000
   4 F    3.000000

 Charge Fitting Sets (for the computation of the Coulomb Potential):  22
 -----------------------------------------------------------------------
   1 S   19.600000
   2 S   22.600000
   2 S   15.680000
   2 S   10.890000
   2 S    7.560000
   3 S    7.690000
   3 S    5.650000
   3 S    4.150000
   3 S    3.050000
   3 S    2.240000
   2 P   12.860000
   2 P    7.680000
   3 P    6.780000
   3 P    4.390000
   3 P    2.840000
   3 D    8.800000
   3 D    5.580000
   3 D    3.530000
   3 D    2.240000
   4 F    6.200000
   4 F    3.700000
   5 G    4.500000

 Atom Type    3  (N)
 ==============

 Valence Basis Sets:  10
 -----------------------
   1 S    8.740000
   1 S    5.900000
   2 S    5.150000
   2 S    2.500000
   2 S    1.500000
   2 P    3.680000
   2 P    1.880000
   2 P    1.000000
   3 D    2.200000
   4 F    3.300000

 Charge Fitting Sets (for the computation of the Coulomb Potential):  22
 -----------------------------------------------------------------------
   1 S   17.480000
   2 S   20.150000
   2 S   13.990000
   2 S    9.710000
   2 S    6.740000
   3 S    6.860000
   3 S    5.040000
   3 S    3.700000
   3 S    2.720000
   3 S    2.000000
   2 P   11.320000
   2 P    6.730000
   3 P    5.920000
   3 P    3.820000
   3 P    2.460000
   3 D    8.100000
   3 D    5.080000
   3 D    3.190000
   3 D    2.000000
   4 F    5.800000
   4 F    3.600000
   5 G    4.500000

 Atom Type    4  (C)
 ==============

 Valence Basis Sets:  10
 -----------------------
   1 S    7.680000
   1 S    5.000000
   2 S    1.280000
   2 S    2.100000
   2 S    4.600000
   2 P    0.820000
   2 P    1.480000
   2 P    2.940000
   3 D    2.200000
   4 F    3.300000

 Charge Fitting Sets (for the computation of the Coulomb Potential):  22
 -----------------------------------------------------------------------
   1 S   15.360000
   2 S   17.530000
   2 S   12.070000
   2 S    8.310000
   2 S    5.730000
   3 S    5.780000
   3 S    4.220000
   3 S    3.080000
   3 S    2.250000
   3 S    1.640000
   2 P    9.880000
   2 P    5.800000
   3 P    5.050000
   3 P    3.230000
   3 P    2.060000
   3 D    7.200000
   3 D    4.400000
   3 D    2.690000
   3 D    1.640000
   4 F    5.400000
   4 F    3.550000
   5 G    4.500000

 Atom Type    5  (H)
 ==============

 Valence Basis Sets:   5
 -----------------------
   1 S    0.690000
   1 S    0.920000
   1 S    1.580000
   2 P    1.250000
   3 D    2.500000

 Charge Fitting Sets (for the computation of the Coulomb Potential):  11
 -----------------------------------------------------------------------
   1 S    3.160000
   1 S    2.090000
   1 S    1.380000
   2 S    1.500000
   2 P    4.000000
   2 P    2.650000
   2 P    1.750000
   3 D    4.000000
   3 D    2.500000
   4 F    3.000000
   5 G    4.000000

 Atom Type    6  (Cl)
 ==============

 Valence Basis Sets:  14
 -----------------------
   1 S   20.300000
   1 S   15.250000
   2 S    6.250000
   2 S    4.450000
   2 P    8.850000
   2 P    5.050000
   3 S    3.450000
   3 S    2.300000
   3 S    1.600000
   3 P    3.350000
   3 P    2.050000
   3 P    1.200000
   3 D    2.000000
   4 F    2.000000

 Charge Fitting Sets (for the computation of the Coulomb Potential):  30
 -----------------------------------------------------------------------
   1 S   40.600000
   1 S   24.830000
   2 S   28.080000
   2 S   19.200000
   3 S   19.250000
   3 S   13.970000
   3 S   10.130000
   4 S    9.710000
   4 S    7.320000
   4 S    5.510000
   5 S    5.170000
   5 S    4.000000
   5 S    3.100000
   5 S    2.400000
   2 P   29.150000
   3 P   21.740000
   4 P   16.160000
   4 P    9.600000
   5 P    7.180000
   5 P    4.480000
   5 P    2.800000
   3 D   21.950000
   4 D   15.750000
   4 D    9.040000
   5 D    6.550000
   5 D    3.960000
   5 D    2.400000
   4 F    5.000000
   4 F    3.000000
   5 G    3.500000


 BAS: List of all Elementary Cartesian Basis Functions
 =====================================================

 The numbering in the list below (to the right of the function characteristics) is referred
 to in print-outs of MO eigenvectors and Mulliken populations in the BAS representation
 (as contrasted to the SFO representation).

 Notes:
 1. The functions are characterized by a polynomial prefactor (powers of x,y,z and r) and
    an exponential decay factor alpha.
 2. Since the basis sets are specific for an atom TYPE, the individual functions occur on
    all atoms of that type.
 3. The word 'Core' in the left margin signals that it is a Core Function (CF) : not a
    degree of freedom in the valence set, but only used to ensure orthogonalization of
    the other valence basis functions on the frozen Core Orbitals.


 (power of) X  Y  Z  R     Alpha  on Atom
            ==========     =====     ==========

 U                                    1
                                  ---------------------------------------------------------------------------
            0  0  0  0  1060.000      1
            0  0  0  0   245.000      2
            0  0  0  0   108.800      3
            0  0  0  1   134.900      4
            0  0  0  1    47.200      5
            0  0  0  2    60.000      6
            0  0  0  2    25.900      7
            0  0  0  3    15.800      8
            0  0  0  3    11.100      9
            0  0  0  4    10.450     10
            0  0  0  4     7.250     11
            0  0  0  5     5.000     12
            0  0  0  5     3.300     13
            0  0  0  6     2.350     14
            0  0  0  6     1.550     15
            0  0  0  6     1.020     16
            1  0  0  0   245.000     17
            0  1  0  0   245.000     18
            0  0  1  0   245.000     19
            1  0  0  0    85.500     20
            0  1  0  0    85.500     21
            0  0  1  0    85.500     22
            1  0  0  0    44.200     23
            0  1  0  0    44.200     24
            0  0  1  0    44.200     25
            1  0  0  1    25.100     26
            0  1  0  1    25.100     27
            0  0  1  1    25.100     28
            1  0  0  1    18.100     29
            0  1  0  1    18.100     30
            0  0  1  1    18.100     31
            1  0  0  2    17.900     32
            0  1  0  2    17.900     33
            0  0  1  2    17.900     34
            1  0  0  2    12.300     35
            0  1  0  2    12.300     36
            0  0  1  2    12.300     37
            1  0  0  3     8.650     38
            0  1  0  3     8.650     39
            0  0  1  3     8.650     40
            1  0  0  3     6.000     41
            0  1  0  3     6.000     42
            0  0  1  3     6.000     43
            1  0  0  4     4.450     44
            0  1  0  4     4.450     45
            0  0  1  4     4.450     46
            1  0  0  4     3.000     47
            0  1  0  4     3.000     48
            0  0  1  4     3.000     49
            1  0  0  4     2.100     50
            0  1  0  4     2.100     51
            0  0  1  4     2.100     52
            2  0  0  0    33.250     53
            1  1  0  0    33.250     54
            1  0  1  0    33.250     55
            0  2  0  0    33.250     56
            0  1  1  0    33.250     57
            0  0  2  0    33.250     58
            2  0  0  0    22.050     59
            1  1  0  0    22.050     60
            1  0  1  0    22.050     61
            0  2  0  0    22.050     62
            0  1  1  0    22.050     63
            0  0  2  0    22.050     64
            2  0  0  1    15.250     65
            1  1  0  1    15.250     66
            1  0  1  1    15.250     67
            0  2  0  1    15.250     68
            0  1  1  1    15.250     69
            0  0  2  1    15.250     70
            2  0  0  1    10.550     71
            1  1  0  1    10.550     72
            1  0  1  1    10.550     73
            0  2  0  1    10.550     74
            0  1  1  1    10.550     75
            0  0  2  1    10.550     76
            2  0  0  2     7.250     77
            1  1  0  2     7.250     78
            1  0  1  2     7.250     79
            0  2  0  2     7.250     80
            0  1  1  2     7.250     81
            0  0  2  2     7.250     82
            2  0  0  2     4.650     83
            1  1  0  2     4.650     84
            1  0  1  2     4.650     85
            0  2  0  2     4.650     86
            0  1  1  2     4.650     87
            0  0  2  2     4.650     88
            2  0  0  3     2.900     89
            1  1  0  3     2.900     90
            1  0  1  3     2.900     91
            0  2  0  3     2.900     92
            0  1  1  3     2.900     93
            0  0  2  3     2.900     94
            2  0  0  3     1.600     95
            1  1  0  3     1.600     96
            1  0  1  3     1.600     97
            0  2  0  3     1.600     98
            0  1  1  3     1.600     99
            0  0  2  3     1.600    100
            2  0  0  3     0.880    101
            1  1  0  3     0.880    102
            1  0  1  3     0.880    103
            0  2  0  3     0.880    104
            0  1  1  3     0.880    105
            0  0  2  3     0.880    106
            3  0  0  0    17.450    107
            2  1  0  0    17.450    108
            2  0  1  0    17.450    109
            1  2  0  0    17.450    110
            1  1  1  0    17.450    111
            1  0  2  0    17.450    112
            0  3  0  0    17.450    113
            0  2  1  0    17.450    114
            0  1  2  0    17.450    115
            0  0  3  0    17.450    116
            3  0  0  0     9.600    117
            2  1  0  0     9.600    118
            2  0  1  0     9.600    119
            1  2  0  0     9.600    120
            1  1  1  0     9.600    121
            1  0  2  0     9.600    122
            0  3  0  0     9.600    123
            0  2  1  0     9.600    124
            0  1  2  0     9.600    125
            0  0  3  0     9.600    126
            3  0  0  1     5.800    127
            2  1  0  1     5.800    128
            2  0  1  1     5.800    129
            1  2  0  1     5.800    130
            1  1  1  1     5.800    131
            1  0  2  1     5.800    132
            0  3  0  1     5.800    133
            0  2  1  1     5.800    134
            0  1  2  1     5.800    135
            0  0  3  1     5.800    136
            3  0  0  1     3.000    137
            2  1  0  1     3.000    138
            2  0  1  1     3.000    139
            1  2  0  1     3.000    140
            1  1  1  1     3.000    141
            1  0  2  1     3.000    142
            0  3  0  1     3.000    143
            0  2  1  1     3.000    144
            0  1  2  1     3.000    145
            0  0  3  1     3.000    146
            3  0  0  1     1.390    147
            2  1  0  1     1.390    148
            2  0  1  1     1.390    149
            1  2  0  1     1.390    150
            1  1  1  1     1.390    151
            1  0  2  1     1.390    152
            0  3  0  1     1.390    153
            0  2  1  1     1.390    154
            0  1  2  1     1.390    155
            0  0  3  1     1.390    156
            1  0  0  5     1.550    157
            0  1  0  5     1.550    158
            0  0  1  5     1.550    159

 O                                    2    3
                                  ---------------------------------------------------------------------------
            0  0  0  0     9.800    160  190
            0  0  0  0     6.800    161  191
            0  0  0  1     7.580    162  192
            0  0  0  1     2.880    163  193
            0  0  0  1     1.720    164  194
            1  0  0  0     4.080    165  195
            0  1  0  0     4.080    166  196
            0  0  1  0     4.080    167  197
            1  0  0  0     2.080    168  198
            0  1  0  0     2.080    169  199
            0  0  1  0     2.080    170  200
            1  0  0  0     1.120    171  201
            0  1  0  0     1.120    172  202
            0  0  1  0     1.120    173  203
            2  0  0  0     2.000    174  204
            1  1  0  0     2.000    175  205
            1  0  1  0     2.000    176  206
            0  2  0  0     2.000    177  207
            0  1  1  0     2.000    178  208
            0  0  2  0     2.000    179  209
            3  0  0  0     3.000    180  210
            2  1  0  0     3.000    181  211
            2  0  1  0     3.000    182  212
            1  2  0  0     3.000    183  213
            1  1  1  0     3.000    184  214
            1  0  2  0     3.000    185  215
            0  3  0  0     3.000    186  216
            0  2  1  0     3.000    187  217
            0  1  2  0     3.000    188  218
            0  0  3  0     3.000    189  219

 N                                    4    5    6    7
                                  ---------------------------------------------------------------------------
            0  0  0  0     8.740    220  250  280  310
            0  0  0  0     5.900    221  251  281  311
            0  0  0  1     5.150    222  252  282  312
            0  0  0  1     2.500    223  253  283  313
            0  0  0  1     1.500    224  254  284  314
            1  0  0  0     3.680    225  255  285  315
            0  1  0  0     3.680    226  256  286  316
            0  0  1  0     3.680    227  257  287  317
            1  0  0  0     1.880    228  258  288  318
            0  1  0  0     1.880    229  259  289  319
            0  0  1  0     1.880    230  260  290  320
            1  0  0  0     1.000    231  261  291  321
            0  1  0  0     1.000    232  262  292  322
            0  0  1  0     1.000    233  263  293  323
            2  0  0  0     2.200    234  264  294  324
            1  1  0  0     2.200    235  265  295  325
            1  0  1  0     2.200    236  266  296  326
            0  2  0  0     2.200    237  267  297  327
            0  1  1  0     2.200    238  268  298  328
            0  0  2  0     2.200    239  269  299  329
            3  0  0  0     3.300    240  270  300  330
            2  1  0  0     3.300    241  271  301  331
            2  0  1  0     3.300    242  272  302  332
            1  2  0  0     3.300    243  273  303  333
            1  1  1  0     3.300    244  274  304  334
            1  0  2  0     3.300    245  275  305  335
            0  3  0  0     3.300    246  276  306  336
            0  2  1  0     3.300    247  277  307  337
            0  1  2  0     3.300    248  278  308  338
            0  0  3  0     3.300    249  279  309  339

 C                                    8    9   10   11   12   13   14   15   16   17   18   19   20   21   22
                                     23   24   25   26   27   28   29   30   31
                                  ---------------------------------------------------------------------------
            0  0  0  0     7.680    340  370  400  430  460  490  520  550  580  610  640  670  700  730  760
                                    790  820  850  880  910  940  970 1000 1030
            0  0  0  0     5.000    341  371  401  431  461  491  521  551  581  611  641  671  701  731  761
                                    791  821  851  881  911  941  971 1001 1031
            0  0  0  1     1.280    342  372  402  432  462  492  522  552  582  612  642  672  702  732  762
                                    792  822  852  882  912  942  972 1002 1032
            0  0  0  1     2.100    343  373  403  433  463  493  523  553  583  613  643  673  703  733  763
                                    793  823  853  883  913  943  973 1003 1033
            0  0  0  1     4.600    344  374  404  434  464  494  524  554  584  614  644  674  704  734  764
                                    794  824  854  884  914  944  974 1004 1034
            1  0  0  0     0.820    345  375  405  435  465  495  525  555  585  615  645  675  705  735  765
                                    795  825  855  885  915  945  975 1005 1035
            0  1  0  0     0.820    346  376  406  436  466  496  526  556  586  616  646  676  706  736  766
                                    796  826  856  886  916  946  976 1006 1036
            0  0  1  0     0.820    347  377  407  437  467  497  527  557  587  617  647  677  707  737  767
                                    797  827  857  887  917  947  977 1007 1037
            1  0  0  0     1.480    348  378  408  438  468  498  528  558  588  618  648  678  708  738  768
                                    798  828  858  888  918  948  978 1008 1038
            0  1  0  0     1.480    349  379  409  439  469  499  529  559  589  619  649  679  709  739  769
                                    799  829  859  889  919  949  979 1009 1039
            0  0  1  0     1.480    350  380  410  440  470  500  530  560  590  620  650  680  710  740  770
                                    800  830  860  890  920  950  980 1010 1040
            1  0  0  0     2.940    351  381  411  441  471  501  531  561  591  621  651  681  711  741  771
                                    801  831  861  891  921  951  981 1011 1041
            0  1  0  0     2.940    352  382  412  442  472  502  532  562  592  622  652  682  712  742  772
                                    802  832  862  892  922  952  982 1012 1042
            0  0  1  0     2.940    353  383  413  443  473  503  533  563  593  623  653  683  713  743  773
                                    803  833  863  893  923  953  983 1013 1043
            2  0  0  0     2.200    354  384  414  444  474  504  534  564  594  624  654  684  714  744  774
                                    804  834  864  894  924  954  984 1014 1044
            1  1  0  0     2.200    355  385  415  445  475  505  535  565  595  625  655  685  715  745  775
                                    805  835  865  895  925  955  985 1015 1045
            1  0  1  0     2.200    356  386  416  446  476  506  536  566  596  626  656  686  716  746  776
                                    806  836  866  896  926  956  986 1016 1046
            0  2  0  0     2.200    357  387  417  447  477  507  537  567  597  627  657  687  717  747  777
                                    807  837  867  897  927  957  987 1017 1047
            0  1  1  0     2.200    358  388  418  448  478  508  538  568  598  628  658  688  718  748  778
                                    808  838  868  898  928  958  988 1018 1048
            0  0  2  0     2.200    359  389  419  449  479  509  539  569  599  629  659  689  719  749  779
                                    809  839  869  899  929  959  989 1019 1049
            3  0  0  0     3.300    360  390  420  450  480  510  540  570  600  630  660  690  720  750  780
                                    810  840  870  900  930  960  990 1020 1050
            2  1  0  0     3.300    361  391  421  451  481  511  541  571  601  631  661  691  721  751  781
                                    811  841  871  901  931  961  991 1021 1051
            2  0  1  0     3.300    362  392  422  452  482  512  542  572  602  632  662  692  722  752  782
                                    812  842  872  902  932  962  992 1022 1052
            1  2  0  0     3.300    363  393  423  453  483  513  543  573  603  633  663  693  723  753  783
                                    813  843  873  903  933  963  993 1023 1053
            1  1  1  0     3.300    364  394  424  454  484  514  544  574  604  634  664  694  724  754  784
                                    814  844  874  904  934  964  994 1024 1054
            1  0  2  0     3.300    365  395  425  455  485  515  545  575  605  635  665  695  725  755  785
                                    815  845  875  905  935  965  995 1025 1055
            0  3  0  0     3.300    366  396  426  456  486  516  546  576  606  636  666  696  726  756  786
                                    816  846  876  906  936  966  996 1026 1056
            0  2  1  0     3.300    367  397  427  457  487  517  547  577  607  637  667  697  727  757  787
                                    817  847  877  907  937  967  997 1027 1057
            0  1  2  0     3.300    368  398  428  458  488  518  548  578  608  638  668  698  728  758  788
                                    818  848  878  908  938  968  998 1028 1058
            0  0  3  0     3.300    369  399  429  459  489  519  549  579  609  639  669  699  729  759  789
                                    819  849  879  909  939  969  999 1029 1059

 H                                   32   33   34   35   36   37   38   39   40   41   42   43   44   45   46
                                     47
                                  ---------------------------------------------------------------------------
            0  0  0  0     0.690   1060 1072 1084 1096 1108 1120 1132 1144 1156 1168 1180 1192 1204 1216 1228
                                   1240
            0  0  0  0     0.920   1061 1073 1085 1097 1109 1121 1133 1145 1157 1169 1181 1193 1205 1217 1229
                                   1241
            0  0  0  0     1.580   1062 1074 1086 1098 1110 1122 1134 1146 1158 1170 1182 1194 1206 1218 1230
                                   1242
            1  0  0  0     1.250   1063 1075 1087 1099 1111 1123 1135 1147 1159 1171 1183 1195 1207 1219 1231
                                   1243
            0  1  0  0     1.250   1064 1076 1088 1100 1112 1124 1136 1148 1160 1172 1184 1196 1208 1220 1232
                                   1244
            0  0  1  0     1.250   1065 1077 1089 1101 1113 1125 1137 1149 1161 1173 1185 1197 1209 1221 1233
                                   1245
            2  0  0  0     2.500   1066 1078 1090 1102 1114 1126 1138 1150 1162 1174 1186 1198 1210 1222 1234
                                   1246
            1  1  0  0     2.500   1067 1079 1091 1103 1115 1127 1139 1151 1163 1175 1187 1199 1211 1223 1235
                                   1247
            1  0  1  0     2.500   1068 1080 1092 1104 1116 1128 1140 1152 1164 1176 1188 1200 1212 1224 1236
                                   1248
            0  2  0  0     2.500   1069 1081 1093 1105 1117 1129 1141 1153 1165 1177 1189 1201 1213 1225 1237
                                   1249
            0  1  1  0     2.500   1070 1082 1094 1106 1118 1130 1142 1154 1166 1178 1190 1202 1214 1226 1238
                                   1250
            0  0  2  0     2.500   1071 1083 1095 1107 1119 1131 1143 1155 1167 1179 1191 1203 1215 1227 1239
                                   1251

 Cl                                  48   49
                                  ---------------------------------------------------------------------------
            0  0  0  0    20.300   1252 1290
            0  0  0  0    15.250   1253 1291
            0  0  0  1     6.250   1254 1292
            0  0  0  1     4.450   1255 1293
            1  0  0  0     8.850   1256 1294
            0  1  0  0     8.850   1257 1295
            0  0  1  0     8.850   1258 1296
            1  0  0  0     5.050   1259 1297
            0  1  0  0     5.050   1260 1298
            0  0  1  0     5.050   1261 1299
            0  0  0  2     3.450   1262 1300
            0  0  0  2     2.300   1263 1301
            0  0  0  2     1.600   1264 1302
            1  0  0  1     3.350   1265 1303
            0  1  0  1     3.350   1266 1304
            0  0  1  1     3.350   1267 1305
            1  0  0  1     2.050   1268 1306
            0  1  0  1     2.050   1269 1307
            0  0  1  1     2.050   1270 1308
            1  0  0  1     1.200   1271 1309
            0  1  0  1     1.200   1272 1310
            0  0  1  1     1.200   1273 1311
            2  0  0  0     2.000   1274 1312
            1  1  0  0     2.000   1275 1313
            1  0  1  0     2.000   1276 1314
            0  2  0  0     2.000   1277 1315
            0  1  1  0     2.000   1278 1316
            0  0  2  0     2.000   1279 1317
            3  0  0  0     2.000   1280 1318
            2  1  0  0     2.000   1281 1319
            2  0  1  0     2.000   1282 1320
            1  2  0  0     2.000   1283 1321
            1  1  1  0     2.000   1284 1322
            1  0  2  0     2.000   1285 1323
            0  3  0  0     2.000   1286 1324
            0  2  1  0     2.000   1287 1325
            0  1  2  0     2.000   1288 1326
            0  0  3  0     2.000   1289 1327

 Total number of charge fitting functions (nprimf)      3929
 Total number of Cartesian basis functions (naos)       1327
 Total number of Cartesian core functions  (ncos)          0

1
 ***************************************************************************************************



                                              ***********************
                                              *  T E C H N I C A L  *
                                              ***********************
  



 =============================================================
 P A R A L L E L I Z A T I O N  and  V E C T O R I Z A T I O N
 =============================================================
  
 Nr of parallel processes:                               24
 Maximum vector length in NumInt loops:                 128



 =====================
 S C F   U P D A T E S
 =====================
  
 Max. nr. of cycles:                               300
 Convergence criterion:                              0.0000010000
   secondary criterion:                              0.0010000000

 Mix parameter (when DIIS does not apply):           0.2000000000
 Mixed ADIIS+SDIIS will be used                  
    Max number of expansion vectors:                10
    Pure ADIIS when Max([F,P]) is above              0.1000000000
    Pure SDIIS when Max([F,P]) is below              0.0010000000
 Automatic ElectronSmearing (in case of problematic SCF convergence) disabled



 =================
 P R E C I S I O N  ***  (General: NumInt, NeglectFunctionTails, ...)  ***
 =================
  

 NumInt:           Target precision:                 4.0000000000
 -------           Initial precision:                4.0000000000
                   Min. precision (optimization):    4.0000000000

 Neglect Functions:          Basis functions:        0.1000000000E-13
 ------------------          Fit functions:          0.1000000000E-13



 ===========================
 L I N E A R   S C A L I N G
 ===========================
  

 Cut-off radii density fit:                        0.1000000000E-07
 Overlap cut-off criterion AO matrix elements:     0.1000000000E-05
 Cut-offs for Coulomb potential and fitted density:0.1000000000E-07
 Cut-off criterion for Coulomb multipole terms:    0.1000000000E-07
 Progressive Convergence parameter:                 0.000000000    
1
 ***************************************************************************************************



                                            ***************************
                                            *  C O M P U T A T I O N  *
                                            ***************************
  



 ==============================
 Double group spinor symmetries  ***  (Spin-Orbit)  ***
 ==============================
  

 The double group Lowdins are spinors adapted to the irreducible representations
 of the double group. These double group Lowdins are linear combinations of
 products of the single group Lowdins and the spinfunctions. The single group
 Lowdins are  orthonormalized symmetrized fragment orbitals (SFOs).
 The complex coefficients that are used in the linear combinations are also
 known as Clebsch-Gordan coefficients.
 The spin functions (alpha,beta) span irrep e1/2


          A * e 1/2 :      A1/2

  A1/2:1 = A.alpha
  A1/2:1 = A.beta

 The table summarizes which one-electron orbital irreps (single group) couple
 with spin to which spinor irreps (double group).
 The Clebsch-Gordan series for each direct product: orbital irrep times e1/2.
                  A
            -------
  A1/2           X


 dimension (equal to the max. nr. of electrons per spinor) of the double group irreps
 ------------------------------------------------------------------------------------
  A1/2           1

 Number of elements of the density matrix on this node (used, total):     35430    881128



 ===========================================
 Numerical Integration : Fuzzy Cells (Becke)
 ===========================================
  
 Becke grid quality: NORMAL         
  
 Lebedev angular grid order:             min:  11 max:  23
 Nr. of radial points:                   min:  46 max: 175

 Total nr. of points:     342992
 Nr. of blocks:             2680
 Block length:               128
 Nr. of dummy points:         48


 Test of Precision of the Numerical Integration Grid
 ===================================================

 Integral of the Total Core Density:                   0.00000000000000



 ========================
 Density Fitting (zlmFit)
 ========================
  
 ZlmFit Fit Quality: NORMAL         
  
 Max L-expansion:                        min:   6 max:   7
 Nr. of radial interpolation points:     min:  39 max: 150



 ======================
 RI Hartree-Fock Scheme
 ======================
  
 Fit Set Quality     : NORMAL
 Integration Quality : NORMAL
 Threshold Quality   : NORMAL
 Response Quality    : DEFAULT
 Is Range Separated  :  T
 Type of Range Separation : 
 Long-Range: Erf potential                                                      
                                                                                
   
 Asymptotic Coulomb       :   0.650000000000000     
 
 RIHartreeFock Dependency: number of modified vectors:          54



 =====
 S C F  ***  ScaSCF  ***
 =====
  
 Initial density matrix is taken from previous geometry

 CYCLE    1
 SCF Error: norm([F,P])=   1655.904258966181, max([F,P])=    348.092697948903
 orbitals (Q,E):
 ---------------
 A1/2 :321...340     ( 1.00    -0.2884)  ( 1.00    -0.2884)  ( 1.00    -0.2838)  ( 1.00    -0.2838)
                     ( 1.00    -0.2822)  ( 1.00    -0.2822)  ( 1.00    -0.2815)  ( 1.00    -0.2815)
                     ( 1.00    -0.2783)  ( 1.00    -0.2783)  ( 0.00    -0.0491)  ( 0.00    -0.0491)
                     ( 0.00    -0.0470)  ( 0.00    -0.0470)  ( 0.00    -0.0202)  ( 0.00    -0.0202)
                     ( 0.00    -0.0198)  ( 0.00    -0.0198)  ( 0.00    -0.0082)  ( 0.00    -0.0082)

 CYCLE    2
   MIX coefficients:  0.8000  0.2000
 SCF Error: norm([F,P])=      0.989035427147, max([F,P])=      0.186858660928
 orbitals (Q,E):
 ---------------
 A1/2 :321...340     ( 1.00    -0.2973)  ( 1.00    -0.2973)  ( 1.00    -0.2929)  ( 1.00    -0.2929)
                     ( 1.00    -0.2904)  ( 1.00    -0.2904)  ( 1.00    -0.2877)  ( 1.00    -0.2877)
                     ( 1.00    -0.2864)  ( 1.00    -0.2864)  ( 0.00    -0.0506)  ( 0.00    -0.0506)
                     ( 0.00    -0.0467)  ( 0.00    -0.0467)  ( 0.00    -0.0251)  ( 0.00    -0.0251)
                     ( 0.00    -0.0224)  ( 0.00    -0.0224)  ( 0.00    -0.0155)  ( 0.00    -0.0155)

 CYCLE    3
  SDIIS (wt  0.000): -2.0000  3.0000
 A-DIIS (wt  1.000):  0.0000  1.0000
  DIIS coefficients:  0.0000  1.0000
 SCF Error: norm([F,P])=      0.789031189286, max([F,P])=      0.149596325834
 orbitals (Q,E):
 ---------------
 A1/2 :321...340     ( 1.00    -0.3199)  ( 1.00    -0.3199)  ( 1.00    -0.3179)  ( 1.00    -0.3179)
                     ( 1.00    -0.3139)  ( 1.00    -0.3139)  ( 1.00    -0.3129)  ( 1.00    -0.3129)
                     ( 1.00    -0.2980)  ( 1.00    -0.2980)  ( 0.00    -0.0544)  ( 0.00    -0.0544)
                     ( 0.00    -0.0468)  ( 0.00    -0.0468)  ( 0.00    -0.0437)  ( 0.00    -0.0437)
                     ( 0.00    -0.0344)  ( 0.00    -0.0344)  ( 0.00    -0.0337)  ( 0.00    -0.0337)

 CYCLE    4
  SDIIS (wt  0.933):  1.6053 -2.0000  1.3947
 A-DIIS (wt  0.067):  0.0000  0.4178  0.5822
  DIIS coefficients:  1.4976 -1.8378  1.3402
 SCF Error: norm([F,P])=      0.083632669325, max([F,P])=      0.007639996720
 orbitals (Q,E):
 ---------------
 A1/2 :321...340     ( 1.00    -0.3092)  ( 1.00    -0.3092)  ( 1.00    -0.3055)  ( 1.00    -0.3055)
                     ( 1.00    -0.3029)  ( 1.00    -0.3029)  ( 1.00    -0.3011)  ( 1.00    -0.3011)
                     ( 1.00    -0.2916)  ( 1.00    -0.2916)  ( 0.00    -0.0500)  ( 0.00    -0.0500)
                     ( 0.00    -0.0462)  ( 0.00    -0.0462)  ( 0.00    -0.0316)  ( 0.00    -0.0316)
                     ( 0.00    -0.0262)  ( 0.00    -0.0262)  ( 0.00    -0.0231)  ( 0.00    -0.0231)

 CYCLE    5
  SDIIS (wt  0.946): -0.0206  0.0238  0.4510  0.5458
 A-DIIS (wt  0.054):  0.0000  0.0000  0.4199  0.5801
  DIIS coefficients: -0.0195  0.0225  0.4493  0.5477
 SCF Error: norm([F,P])=      0.071055672580, max([F,P])=      0.006367867424
 orbitals (Q,E):
 ---------------
 A1/2 :321...340     ( 1.00    -0.3127)  ( 1.00    -0.3127)  ( 1.00    -0.3109)  ( 1.00    -0.3109)
                     ( 1.00    -0.3071)  ( 1.00    -0.3071)  ( 1.00    -0.3059)  ( 1.00    -0.3059)
                     ( 1.00    -0.2940)  ( 1.00    -0.2940)  ( 0.00    -0.0517)  ( 0.00    -0.0517)
                     ( 0.00    -0.0462)  ( 0.00    -0.0462)  ( 0.00    -0.0349)  ( 0.00    -0.0349)
                     ( 0.00    -0.0278)  ( 0.00    -0.0278)  ( 0.00    -0.0263)  ( 0.00    -0.0263)

 CYCLE    6
  SDIIS (wt  0.994): -0.5505  0.6871  0.0438  0.4117  0.4079
 A-DIIS (wt  0.006):  0.0000  0.0000  0.0000  0.0000  1.0000
  DIIS coefficients: -0.5474  0.6832  0.0436  0.4094  0.4113
 SCF Error: norm([F,P])=      0.011975282906, max([F,P])=      0.001565036268
 orbitals (Q,E):
 ---------------
 A1/2 :321...340     ( 1.00    -0.3133)  ( 1.00    -0.3133)  ( 1.00    -0.3116)  ( 1.00    -0.3116)
                     ( 1.00    -0.3075)  ( 1.00    -0.3075)  ( 1.00    -0.3067)  ( 1.00    -0.3067)
                     ( 1.00    -0.2943)  ( 1.00    -0.2943)  ( 0.00    -0.0517)  ( 0.00    -0.0517)
                     ( 0.00    -0.0462)  ( 0.00    -0.0462)  ( 0.00    -0.0362)  ( 0.00    -0.0362)
                     ( 0.00    -0.0283)  ( 0.00    -0.0283)  ( 0.00    -0.0272)  ( 0.00    -0.0272)

 CYCLE    7
  SDIIS (wt  1.000): -0.2305  0.2880 -0.0682  0.0672  0.2217  0.7217
  DIIS coefficients: -0.2305  0.2880 -0.0682  0.0672  0.2217  0.7217
 SCF Error: norm([F,P])=      0.003228894180, max([F,P])=      0.000298680998
 orbitals (Q,E):
 ---------------
 A1/2 :321...340     ( 1.00    -0.3134)  ( 1.00    -0.3134)  ( 1.00    -0.3117)  ( 1.00    -0.3117)
                     ( 1.00    -0.3076)  ( 1.00    -0.3076)  ( 1.00    -0.3068)  ( 1.00    -0.3068)
                     ( 1.00    -0.2944)  ( 1.00    -0.2944)  ( 0.00    -0.0517)  ( 0.00    -0.0517)
                     ( 0.00    -0.0462)  ( 0.00    -0.0462)  ( 0.00    -0.0362)  ( 0.00    -0.0362)
                     ( 0.00    -0.0283)  ( 0.00    -0.0283)  ( 0.00    -0.0272)  ( 0.00    -0.0272)

 CYCLE    8
  SDIIS (wt  1.000):  0.0196 -0.0244 -0.0339 -0.0540  0.0279  0.2937  0.7711
  DIIS coefficients:  0.0196 -0.0244 -0.0339 -0.0540  0.0279  0.2937  0.7711
 SCF Error: norm([F,P])=      0.001180525732, max([F,P])=      0.000116629657
 orbitals (Q,E):
 ---------------
 A1/2 :321...340     ( 1.00    -0.3133)  ( 1.00    -0.3133)  ( 1.00    -0.3116)  ( 1.00    -0.3116)
                     ( 1.00    -0.3076)  ( 1.00    -0.3076)  ( 1.00    -0.3068)  ( 1.00    -0.3068)
                     ( 1.00    -0.2943)  ( 1.00    -0.2943)  ( 0.00    -0.0517)  ( 0.00    -0.0517)
                     ( 0.00    -0.0462)  ( 0.00    -0.0462)  ( 0.00    -0.0362)  ( 0.00    -0.0362)
                     ( 0.00    -0.0283)  ( 0.00    -0.0283)  ( 0.00    -0.0272)  ( 0.00    -0.0272)

 CYCLE    9
  SDIIS (wt  1.000):  0.0692 -0.0864  0.0042 -0.0397 -0.0288 -0.0532  0.3164  0.8183
  DIIS coefficients:  0.0692 -0.0864  0.0042 -0.0397 -0.0288 -0.0532  0.3164  0.8183
 SCF Error: norm([F,P])=      0.000612261138, max([F,P])=      0.000062838918
 orbitals (Q,E):
 ---------------
 A1/2 :321...340     ( 1.00    -0.3133)  ( 1.00    -0.3133)  ( 1.00    -0.3116)  ( 1.00    -0.3116)
                     ( 1.00    -0.3076)  ( 1.00    -0.3076)  ( 1.00    -0.3068)  ( 1.00    -0.3068)
                     ( 1.00    -0.2943)  ( 1.00    -0.2943)  ( 0.00    -0.0517)  ( 0.00    -0.0517)
                     ( 0.00    -0.0462)  ( 0.00    -0.0462)  ( 0.00    -0.0362)  ( 0.00    -0.0362)
                     ( 0.00    -0.0283)  ( 0.00    -0.0283)  ( 0.00    -0.0272)  ( 0.00    -0.0272)

 CYCLE   10
  SDIIS (wt  1.000):  0.0300 -0.0374  0.0099 -0.0073 -0.0238 -0.1015 -0.0258  0.4374  0.7185
  DIIS coefficients:  0.0300 -0.0374  0.0099 -0.0073 -0.0238 -0.1015 -0.0258  0.4374  0.7185
 SCF Error: norm([F,P])=      0.000328993079, max([F,P])=      0.000028653703
 orbitals (Q,E):
 ---------------
 A1/2 :321...340     ( 1.00    -0.3133)  ( 1.00    -0.3133)  ( 1.00    -0.3116)  ( 1.00    -0.3116)
                     ( 1.00    -0.3076)  ( 1.00    -0.3076)  ( 1.00    -0.3068)  ( 1.00    -0.3068)
                     ( 1.00    -0.2943)  ( 1.00    -0.2943)  ( 0.00    -0.0517)  ( 0.00    -0.0517)
                     ( 0.00    -0.0462)  ( 0.00    -0.0462)  ( 0.00    -0.0362)  ( 0.00    -0.0362)
                     ( 0.00    -0.0283)  ( 0.00    -0.0283)  ( 0.00    -0.0272)  ( 0.00    -0.0272)

 CYCLE   11
  SDIIS (wt  1.000): -0.0038  0.0047  0.0027  0.0057 -0.0068 -0.0344 -0.0786  0.0310  0.3239  0.7557
  DIIS coefficients: -0.0038  0.0047  0.0027  0.0057 -0.0068 -0.0344 -0.0786  0.0310  0.3239  0.7557
 SCF Error: norm([F,P])=      0.000139893597, max([F,P])=      0.000011452137
 orbitals (Q,E):
 ---------------
 A1/2 :321...340     ( 1.00    -0.3133)  ( 1.00    -0.3133)  ( 1.00    -0.3117)  ( 1.00    -0.3117)
                     ( 1.00    -0.3076)  ( 1.00    -0.3076)  ( 1.00    -0.3068)  ( 1.00    -0.3068)
                     ( 1.00    -0.2943)  ( 1.00    -0.2943)  ( 0.00    -0.0517)  ( 0.00    -0.0517)
                     ( 0.00    -0.0462)  ( 0.00    -0.0462)  ( 0.00    -0.0362)  ( 0.00    -0.0362)
                     ( 0.00    -0.0283)  ( 0.00    -0.0283)  ( 0.00    -0.0272)  ( 0.00    -0.0272)

 CYCLE   12
  SDIIS (wt  1.000): -0.0000  0.0013  0.0015 -0.0015 -0.0071 -0.0239 -0.0226  0.0491  0.3003  0.7030
  DIIS coefficients: -0.0000  0.0013  0.0015 -0.0015 -0.0071 -0.0239 -0.0226  0.0491  0.3003  0.7030
 SCF Error: norm([F,P])=      0.000056992992, max([F,P])=      0.000006033619
 orbitals (Q,E):
 ---------------
 A1/2 :321...340     ( 1.00    -0.3133)  ( 1.00    -0.3133)  ( 1.00    -0.3116)  ( 1.00    -0.3116)
                     ( 1.00    -0.3076)  ( 1.00    -0.3076)  ( 1.00    -0.3068)  ( 1.00    -0.3068)
                     ( 1.00    -0.2943)  ( 1.00    -0.2943)  ( 0.00    -0.0517)  ( 0.00    -0.0517)
                     ( 0.00    -0.0462)  ( 0.00    -0.0462)  ( 0.00    -0.0362)  ( 0.00    -0.0362)
                     ( 0.00    -0.0283)  ( 0.00    -0.0283)  ( 0.00    -0.0272)  ( 0.00    -0.0272)

 CYCLE   13
  SDIIS (wt  1.000): -0.0001 -0.0001  0.0026  0.0091  0.0056 -0.0360 -0.0702 -0.0464  0.3622  0.7734
  DIIS coefficients: -0.0001 -0.0001  0.0026  0.0091  0.0056 -0.0360 -0.0702 -0.0464  0.3622  0.7734
 SCF Error: norm([F,P])=      0.000032987188, max([F,P])=      0.000003263327
 orbitals (Q,E):
 ---------------
 A1/2 :321...340     ( 1.00    -0.3133)  ( 1.00    -0.3133)  ( 1.00    -0.3116)  ( 1.00    -0.3116)
                     ( 1.00    -0.3076)  ( 1.00    -0.3076)  ( 1.00    -0.3068)  ( 1.00    -0.3068)
                     ( 1.00    -0.2943)  ( 1.00    -0.2943)  ( 0.00    -0.0517)  ( 0.00    -0.0517)
                     ( 0.00    -0.0462)  ( 0.00    -0.0462)  ( 0.00    -0.0362)  ( 0.00    -0.0362)
                     ( 0.00    -0.0283)  ( 0.00    -0.0283)  ( 0.00    -0.0272)  ( 0.00    -0.0272)

 CYCLE   14
  SDIIS (wt  1.000):  0.0000  0.0007  0.0034  0.0037 -0.0074 -0.0266 -0.0583  0.0174  0.2696  0.7975
  DIIS coefficients:  0.0000  0.0007  0.0034  0.0037 -0.0074 -0.0266 -0.0583  0.0174  0.2696  0.7975
 SCF Error: norm([F,P])=      0.000013806485, max([F,P])=      0.000001903651
 orbitals (Q,E):
 ---------------
 A1/2 :321...340     ( 1.00    -0.3133)  ( 1.00    -0.3133)  ( 1.00    -0.3116)  ( 1.00    -0.3116)
                     ( 1.00    -0.3076)  ( 1.00    -0.3076)  ( 1.00    -0.3068)  ( 1.00    -0.3068)
                     ( 1.00    -0.2943)  ( 1.00    -0.2943)  ( 0.00    -0.0517)  ( 0.00    -0.0517)
                     ( 0.00    -0.0462)  ( 0.00    -0.0462)  ( 0.00    -0.0362)  ( 0.00    -0.0362)
                     ( 0.00    -0.0283)  ( 0.00    -0.0283)  ( 0.00    -0.0272)  ( 0.00    -0.0272)

 CYCLE   15
  SDIIS (wt  1.000): -0.0005 -0.0014 -0.0003  0.0079  0.0107 -0.0068 -0.0934 -0.1302  0.2249  0.9891
  DIIS coefficients: -0.0005 -0.0014 -0.0003  0.0079  0.0107 -0.0068 -0.0934 -0.1302  0.2249  0.9891
 SCF Error: norm([F,P])=      0.000006060186, max([F,P])=      0.000001197471
 orbitals (Q,E):
 ---------------
 A1/2 :321...340     ( 1.00    -0.3133)  ( 1.00    -0.3133)  ( 1.00    -0.3116)  ( 1.00    -0.3116)
                     ( 1.00    -0.3076)  ( 1.00    -0.3076)  ( 1.00    -0.3068)  ( 1.00    -0.3068)
                     ( 1.00    -0.2943)  ( 1.00    -0.2943)  ( 0.00    -0.0517)  ( 0.00    -0.0517)
                     ( 0.00    -0.0462)  ( 0.00    -0.0462)  ( 0.00    -0.0362)  ( 0.00    -0.0362)
                     ( 0.00    -0.0283)  ( 0.00    -0.0283)  ( 0.00    -0.0272)  ( 0.00    -0.0272)

 CYCLE   16
  SDIIS (wt  1.000): -0.0007 -0.0004  0.0025  0.0054  0.0035 -0.0296 -0.0746 -0.0640  0.3239  0.8339
  DIIS coefficients: -0.0007 -0.0004  0.0025  0.0054  0.0035 -0.0296 -0.0746 -0.0640  0.3239  0.8339
 SCF Error: norm([F,P])=      0.000003993499, max([F,P])=      0.000000602768
 orbitals (Q,E):
 ---------------
 A1/2 :321...340     ( 1.00    -0.3133)  ( 1.00    -0.3133)  ( 1.00    -0.3116)  ( 1.00    -0.3116)
                     ( 1.00    -0.3076)  ( 1.00    -0.3076)  ( 1.00    -0.3068)  ( 1.00    -0.3068)
                     ( 1.00    -0.2943)  ( 1.00    -0.2943)  ( 0.00    -0.0517)  ( 0.00    -0.0517)
                     ( 0.00    -0.0462)  ( 0.00    -0.0462)  ( 0.00    -0.0362)  ( 0.00    -0.0362)
                     ( 0.00    -0.0283)  ( 0.00    -0.0283)  ( 0.00    -0.0272)  ( 0.00    -0.0272)

 SCF CONVERGED

 CYCLE   17
1
 ***************************************************************************************************



                                                *******************
                                                *  R E S U L T S  *
                                                *******************
  
  
 Hartree-Fock exchange energy:   -160.183374491386     
 *** Using EXACT density in Focky


 *** Use of untested dispersion parameters detected in GrimmeDispersion ***


  SDIIS (wt  1.000): -0.0005 -0.0009  0.0018  0.0090  0.0034 -0.0253 -0.0839 -0.0635  0.2756  0.8843
  DIIS coefficients: -0.0005 -0.0009  0.0018  0.0090  0.0034 -0.0253 -0.0839 -0.0635  0.2756  0.8843
 SCF Error: norm([F,P])=      0.000002105384, max([F,P])=      0.000000330777

 Scaled ZORA Orbital Energies, per Irrep and Spin:
 =================================================
                        Occup              E (au)              E (eV)       Diff (eV) with prev. cycle
                        -----      --------------------        ------       --------------------------
 A1/2
             321        1.000     -0.31332717032635E+00        -8.526               3.72E-06
             322        1.000     -0.31332717031893E+00        -8.526               3.72E-06
             323        1.000     -0.31164901291412E+00        -8.480               5.41E-06
             324        1.000     -0.31164901291394E+00        -8.480               5.41E-06
             325        1.000     -0.30757425577440E+00        -8.370               4.12E-06
             326        1.000     -0.30757425577038E+00        -8.370               4.12E-06
             327        1.000     -0.30678449935278E+00        -8.348               4.39E-06
             328        1.000     -0.30678449934590E+00        -8.348               4.39E-06
             329        1.000     -0.29430244063587E+00        -8.008               2.55E-06
             330        1.000     -0.29430244063497E+00        -8.008               2.55E-06
             331        0.000     -0.51714192074607E-01        -1.407
             332        0.000     -0.51714192074433E-01        -1.407
             333        0.000     -0.46198827308233E-01        -1.257
             334        0.000     -0.46198827307856E-01        -1.257
             335        0.000     -0.36168237858688E-01        -0.984
             336        0.000     -0.36168237858141E-01        -0.984
             337        0.000     -0.28288889005547E-01        -0.770
             338        0.000     -0.28288889005169E-01        -0.770
             339        0.000     -0.27184116769962E-01        -0.740
             340        0.000     -0.27184116769167E-01        -0.740
  
 HOMO :      330 A1/2             -0.29430244063497E+00
 LUMO :      331 A1/2             -0.51714192074607E-01
  


 All Electron Calculation, thus no Orbital Energies of the Core Orbitals are calculated


 Fit test: (difference of exact and fit density, squared integrated, result summed over spins)
         Sum-of-Fragments:                             0.00000785887416
         Orthogonalized Fragments:                     0.00351729455132
         SCF:                                          0.00416057811130



 ==========================
 Electron Density at Nuclei
 ==========================
  
 The electron density is calculated at points on a small sphere around the center of a nucleus.
 The printed electron density is the average electron density on these points.
 The radius of the sphere is the printed approximate finite nuclear radius.
 Note: ZORA-4 density is used, which includes small component density

         Atom        Nuclear Radius (Angstrom)             Electron Density (a.u.)
         ----        -------------------------             -----------------------
     1)   U                 0.0000742428                          4173011.70811
     2)   O                 0.0000345546                              313.81381
     3)   O                 0.0000345546                              313.81382
     4)   N                 0.0000333706                              205.71187
     5)   C                 0.0000320678                              126.82958
     6)   H                 0.0000181514                                0.48830
     7)   C                 0.0000320678                              126.76161
     8)   H                 0.0000181514                                0.49495
     9)   C                 0.0000320678                              126.79757
    10)   H                 0.0000181514                                0.49565
    11)   C                 0.0000320678                              126.74741
    12)   C                 0.0000320678                              126.76145
    13)   H                 0.0000181514                                0.49583
    14)   C                 0.0000320678                              126.76145
    15)   H                 0.0000181514                                0.49583
    16)   C                 0.0000320678                              126.74742
    17)   C                 0.0000320678                              126.79756
    18)   H                 0.0000181514                                0.49565
    19)   C                 0.0000320678                              126.76161
    20)   H                 0.0000181514                                0.49495
    21)   C                 0.0000320678                              126.82958
    22)   H                 0.0000181514                                0.48830
    23)   N                 0.0000333706                              205.71187
    24)   C                 0.0000320678                              126.75010
    25)   C                 0.0000320678                              126.75010
    26)   Cl                0.0000426624                             3311.23855
    27)   Cl                0.0000426624                             3311.23858
    28)   N                 0.0000333706                              205.77157
    29)   C                 0.0000320678                              126.80555
    30)   H                 0.0000181514                                0.49611
    31)   C                 0.0000320678                              126.75865
    32)   H                 0.0000181514                                0.49582
    33)   C                 0.0000320678                              126.79015
    34)   H                 0.0000181514                                0.49620
    35)   C                 0.0000320678                              126.74678
    36)   C                 0.0000320678                              126.75876
    37)   H                 0.0000181514                                0.49632
    38)   C                 0.0000320678                              126.75876
    39)   H                 0.0000181514                                0.49632
    40)   C                 0.0000320678                              126.74679
    41)   C                 0.0000320678                              126.79015
    42)   H                 0.0000181514                                0.49620
    43)   C                 0.0000320678                              126.75864
    44)   H                 0.0000181514                                0.49582
    45)   C                 0.0000320678                              126.80554
    46)   H                 0.0000181514                                0.49611
    47)   N                 0.0000333706                              205.77157
    48)   C                 0.0000320678                              126.75329
    49)   C                 0.0000320678                              126.75329



 =======================================
 M U L L I K E N   P O P U L A T I O N S
 =======================================
  
 The survey below gives for each atom:
 a) the total charge (Z minus electrons)
 b) the net spin polarization (nr of electrons spin-A minus spin-B)
 c) for each spin the atomic electron valence density (integrated) per L-value.

 Atom              Charge    Spin density          S         P         D         F
 ----              ------    ------------       ------    ------    ------    ------
 1 U               2.0314                      12.0712   29.7289   31.6462   16.5224
 2 O              -0.6692                       3.8913    4.7218    0.0504    0.0057
 3 O              -0.6692                       3.8913    4.7218    0.0504    0.0057
 4 N              -0.4730                       3.5238    3.8732    0.0701    0.0059
 5 C               0.4418                       3.0137    2.4531    0.0849    0.0065
 6 H              -0.1375                       1.0390    0.0930    0.0054    0.0000
 7 C               0.1634                       3.0648    2.7063    0.0604    0.0051
 8 H              -0.1898                       1.1167    0.0681    0.0049    0.0000
 9 C               0.2611                       3.0511    2.6188    0.0639    0.0051
 10 H             -0.1933                       1.1182    0.0700    0.0051    0.0000
 11 C             -0.0016                       3.0909    2.8240    0.0803    0.0064
 12 C              0.2146                       3.0453    2.6722    0.0629    0.0050
 13 H             -0.1976                       1.1207    0.0717    0.0052    0.0000
 14 C              0.2146                       3.0453    2.6722    0.0629    0.0050
 15 H             -0.1976                       1.1207    0.0717    0.0052    0.0000
 16 C             -0.0016                       3.0909    2.8240    0.0803    0.0064
 17 C              0.2611                       3.0511    2.6188    0.0639    0.0051
 18 H             -0.1933                       1.1182    0.0700    0.0051    0.0000
 19 C              0.1634                       3.0648    2.7064    0.0604    0.0051
 20 H             -0.1897                       1.1167    0.0681    0.0049    0.0000
 21 C              0.4418                       3.0137    2.4531    0.0849    0.0065
 22 H             -0.1375                       1.0390    0.0930    0.0054    0.0000
 23 N             -0.4730                       3.5238    3.8732    0.0701    0.0059
 24 C              0.1826                       3.0647    2.6448    0.1002    0.0077
 25 C              0.1826                       3.0647    2.6448    0.1002    0.0077
 26 Cl            -0.5003                       5.9656   11.5143    0.0161    0.0043
 27 Cl            -0.5003                       5.9656   11.5143    0.0161    0.0043
 28 N             -0.4100                       3.5190    3.8129    0.0721    0.0059
 29 C              0.4412                       3.0060    2.4599    0.0862    0.0066
 30 H             -0.1575                       1.0761    0.0760    0.0054    0.0000
 31 C              0.1630                       3.0623    2.7090    0.0607    0.0051
 32 H             -0.1972                       1.1235    0.0688    0.0050    0.0000
 33 C              0.2564                       3.0490    2.6259    0.0636    0.0051
 34 H             -0.2003                       1.1247    0.0705    0.0051    0.0000
 35 C             -0.0025                       3.0902    2.8256    0.0803    0.0064
 36 C              0.2112                       3.0458    2.6751    0.0629    0.0050
 37 H             -0.2031                       1.1261    0.0718    0.0052    0.0000
 38 C              0.2112                       3.0458    2.6751    0.0629    0.0050
 39 H             -0.2031                       1.1261    0.0718    0.0052    0.0000
[...]
     1: 327 a1/2   -> 340 a1/2      0.0268
     1: 328 a1/2   -> 339 a1/2      0.0268
     1: 300 a1/2   -> 339 a1/2      0.0225
     1: 299 a1/2   -> 340 a1/2      0.0225
     1: 319 a1/2   -> 335 a1/2      0.0204
     1: 320 a1/2   -> 336 a1/2      0.0204
     1: 327 a1/2   -> 338 a1/2      0.0178
     1: 328 a1/2   -> 337 a1/2      0.0178
     1: 299 a1/2   -> 338 a1/2      0.0170
     1: 300 a1/2   -> 337 a1/2      0.0170


     2: 328 a1/2   -> 335 a1/2      0.0657
     2: 327 a1/2   -> 336 a1/2      0.0657
     2: 311 a1/2   -> 335 a1/2      0.0532
     2: 312 a1/2   -> 336 a1/2      0.0532
     2: 300 a1/2   -> 335 a1/2      0.0470
     2: 299 a1/2   -> 336 a1/2      0.0470
     2: 328 a1/2   -> 340 a1/2      0.0414
     2: 327 a1/2   -> 339 a1/2      0.0414
     2: 328 a1/2   -> 336 a1/2      0.0396
     2: 327 a1/2   -> 335 a1/2      0.0396
     2: 299 a1/2   -> 335 a1/2      0.0359
     2: 300 a1/2   -> 336 a1/2      0.0359
     2: 300 a1/2   -> 340 a1/2      0.0357
     2: 299 a1/2   -> 339 a1/2      0.0357
     2: 320 a1/2   -> 335 a1/2      0.0233
     2: 319 a1/2   -> 336 a1/2      0.0233
     2: 311 a1/2   -> 340 a1/2      0.0229
     2: 312 a1/2   -> 339 a1/2      0.0229
     2: 299 a1/2   -> 342 a1/2      0.0083
     2: 300 a1/2   -> 341 a1/2      0.0083


     3: 299 a1/2   -> 341 a1/2      0.0847
     3: 300 a1/2   -> 342 a1/2      0.0847
     3: 327 a1/2   -> 341 a1/2      0.0833
     3: 328 a1/2   -> 342 a1/2      0.0833
     3: 312 a1/2   -> 342 a1/2      0.0511
     3: 311 a1/2   -> 341 a1/2      0.0511
     3: 327 a1/2   -> 338 a1/2      0.0325
     3: 328 a1/2   -> 337 a1/2      0.0325
     3: 299 a1/2   -> 338 a1/2      0.0300
     3: 300 a1/2   -> 337 a1/2      0.0300
     3: 320 a1/2   -> 341 a1/2      0.0266
     3: 319 a1/2   -> 342 a1/2      0.0266
     3: 327 a1/2   -> 342 a1/2      0.0258
     3: 328 a1/2   -> 341 a1/2      0.0258
     3: 299 a1/2   -> 342 a1/2      0.0198
     3: 300 a1/2   -> 341 a1/2      0.0198
     3: 312 a1/2   -> 341 a1/2      0.0141
     3: 311 a1/2   -> 342 a1/2      0.0141
     3: 315 a1/2   -> 341 a1/2      0.0108
     3: 316 a1/2   -> 342 a1/2      0.0108


     4: 299 a1/2   -> 342 a1/2      0.0890
     4: 300 a1/2   -> 341 a1/2      0.0890
     4: 327 a1/2   -> 342 a1/2      0.0875
     4: 328 a1/2   -> 341 a1/2      0.0875
     4: 311 a1/2   -> 342 a1/2      0.0525
     4: 312 a1/2   -> 341 a1/2      0.0525
     4: 328 a1/2   -> 338 a1/2      0.0298
     4: 327 a1/2   -> 337 a1/2      0.0298
     4: 320 a1/2   -> 342 a1/2      0.0288
     4: 319 a1/2   -> 341 a1/2      0.0288
     4: 299 a1/2   -> 337 a1/2      0.0286
     4: 300 a1/2   -> 338 a1/2      0.0286
     4: 328 a1/2   -> 342 a1/2      0.0271
     4: 327 a1/2   -> 341 a1/2      0.0271
     4: 300 a1/2   -> 342 a1/2      0.0208
     4: 299 a1/2   -> 341 a1/2      0.0208
     4: 312 a1/2   -> 342 a1/2      0.0145
     4: 311 a1/2   -> 341 a1/2      0.0145
     4: 316 a1/2   -> 341 a1/2      0.0122
     4: 315 a1/2   -> 342 a1/2      0.0122


     5: 327 a1/2   -> 336 a1/2      0.0481
     5: 328 a1/2   -> 335 a1/2      0.0481
     5: 327 a1/2   -> 335 a1/2      0.0473
     5: 328 a1/2   -> 336 a1/2      0.0473
     5: 311 a1/2   -> 335 a1/2      0.0470
     5: 312 a1/2   -> 336 a1/2      0.0470
     5: 328 a1/2   -> 339 a1/2      0.0427
     5: 327 a1/2   -> 340 a1/2      0.0427
     5: 299 a1/2   -> 335 a1/2      0.0399
     5: 300 a1/2   -> 336 a1/2      0.0399
     5: 300 a1/2   -> 339 a1/2      0.0380
     5: 299 a1/2   -> 340 a1/2      0.0380
     5: 300 a1/2   -> 335 a1/2      0.0321
     5: 299 a1/2   -> 336 a1/2      0.0321
     5: 320 a1/2   -> 335 a1/2      0.0206
     5: 319 a1/2   -> 336 a1/2      0.0206
     5: 312 a1/2   -> 339 a1/2      0.0200
     5: 311 a1/2   -> 340 a1/2      0.0200
     5: 319 a1/2   -> 339 a1/2      0.0125
     5: 320 a1/2   -> 340 a1/2      0.0125


     6: 328 a1/2   -> 336 a1/2      0.0567
     6: 327 a1/2   -> 335 a1/2      0.0567
     6: 328 a1/2   -> 335 a1/2      0.0559
     6: 327 a1/2   -> 336 a1/2      0.0559
     6: 311 a1/2   -> 336 a1/2      0.0510
     6: 312 a1/2   -> 335 a1/2      0.0510
     6: 300 a1/2   -> 335 a1/2      0.0450
     6: 299 a1/2   -> 336 a1/2      0.0450
     6: 300 a1/2   -> 336 a1/2      0.0363
     6: 299 a1/2   -> 335 a1/2      0.0363
     6: 327 a1/2   -> 339 a1/2      0.0304
     6: 328 a1/2   -> 340 a1/2      0.0304
     6: 319 a1/2   -> 335 a1/2      0.0265
     6: 320 a1/2   -> 336 a1/2      0.0265
     6: 299 a1/2   -> 339 a1/2      0.0262
     6: 300 a1/2   -> 340 a1/2      0.0262
     6: 311 a1/2   -> 339 a1/2      0.0131
     6: 312 a1/2   -> 340 a1/2      0.0131
     6: 316 a1/2   -> 335 a1/2      0.0091
     6: 315 a1/2   -> 336 a1/2      0.0091


     7: 328 a1/2   -> 342 a1/2      0.0761
     7: 327 a1/2   -> 341 a1/2      0.0761
     7: 300 a1/2   -> 342 a1/2      0.0588
     7: 299 a1/2   -> 341 a1/2      0.0588
     7: 311 a1/2   -> 342 a1/2      0.0417
     7: 312 a1/2   -> 341 a1/2      0.0417
     7: 328 a1/2   -> 337 a1/2      0.0159
     7: 327 a1/2   -> 338 a1/2      0.0159
     7: 319 a1/2   -> 341 a1/2      0.0140
     7: 320 a1/2   -> 342 a1/2      0.0140
     7: 328 a1/2   -> 339 a1/2      0.0135
     7: 327 a1/2   -> 340 a1/2      0.0135
     7: 299 a1/2   -> 342 a1/2      0.0128
     7: 300 a1/2   -> 341 a1/2      0.0128
     7: 299 a1/2   -> 338 a1/2      0.0121
     7: 300 a1/2   -> 337 a1/2      0.0121
     7: 328 a1/2   -> 341 a1/2      0.0121
     7: 327 a1/2   -> 342 a1/2      0.0121
     7: 328 a1/2   -> 336 a1/2      0.0115
     7: 327 a1/2   -> 335 a1/2      0.0115


     8: 330 a1/2   -> 338 a1/2      0.1961
     8: 329 a1/2   -> 337 a1/2      0.1961
     8: 330 a1/2   -> 341 a1/2      0.0514
     8: 329 a1/2   -> 342 a1/2      0.0513
     8: 330 a1/2   -> 340 a1/2      0.0372
     8: 329 a1/2   -> 339 a1/2      0.0372
     8: 325 a1/2   -> 340 a1/2      0.0308
     8: 326 a1/2   -> 339 a1/2      0.0308
     8: 325 a1/2   -> 335 a1/2      0.0153
     8: 326 a1/2   -> 336 a1/2      0.0153
     8: 326 a1/2   -> 335 a1/2      0.0089
     8: 325 a1/2   -> 336 a1/2      0.0089
     8: 329 a1/2   -> 341 a1/2      0.0085
     8: 330 a1/2   -> 342 a1/2      0.0085
     8: 306 a1/2   -> 350 a1/2      0.0084
     8: 305 a1/2   -> 349 a1/2      0.0084
     8: 321 a1/2   -> 340 a1/2      0.0084
     8: 322 a1/2   -> 339 a1/2      0.0084
     8: 305 a1/2   -> 350 a1/2      0.0067
     8: 306 a1/2   -> 349 a1/2      0.0067


     9: 330 a1/2   -> 337 a1/2      0.2071
     9: 329 a1/2   -> 338 a1/2      0.1937
     9: 330 a1/2   -> 342 a1/2      0.0514
     9: 329 a1/2   -> 341 a1/2      0.0482
     9: 330 a1/2   -> 339 a1/2      0.0393
     9: 329 a1/2   -> 340 a1/2      0.0369
     9: 326 a1/2   -> 340 a1/2      0.0310
     9: 325 a1/2   -> 339 a1/2      0.0290
     9: 326 a1/2   -> 335 a1/2      0.0157
     9: 325 a1/2   -> 336 a1/2      0.0148
     9: 326 a1/2   -> 336 a1/2      0.0092
     9: 322 a1/2   -> 340 a1/2      0.0091
     9: 306 a1/2   -> 349 a1/2      0.0088
     9: 321 a1/2   -> 339 a1/2      0.0087
     9: 330 a1/2   -> 341 a1/2      0.0086
     9: 325 a1/2   -> 335 a1/2      0.0085
     9: 305 a1/2   -> 350 a1/2      0.0082
     9: 326 a1/2   -> 338 a1/2      0.0081
     9: 329 a1/2   -> 342 a1/2      0.0079
     9: 325 a1/2   -> 337 a1/2      0.0077


    10: 329 a1/2   -> 338 a1/2      0.2019
    10: 330 a1/2   -> 337 a1/2      0.1886
    10: 329 a1/2   -> 341 a1/2      0.0467
    10: 330 a1/2   -> 342 a1/2      0.0435
    10: 329 a1/2   -> 340 a1/2      0.0355
    10: 330 a1/2   -> 339 a1/2      0.0331
    10: 325 a1/2   -> 339 a1/2      0.0288
    10: 326 a1/2   -> 340 a1/2      0.0268
    10: 329 a1/2   -> 342 a1/2      0.0139
    10: 330 a1/2   -> 341 a1/2      0.0131
    10: 325 a1/2   -> 335 a1/2      0.0128
    10: 325 a1/2   -> 336 a1/2      0.0123
    10: 326 a1/2   -> 336 a1/2      0.0121
    10: 326 a1/2   -> 335 a1/2      0.0114
    10: 305 a1/2   -> 350 a1/2      0.0083
    10: 306 a1/2   -> 349 a1/2      0.0078
    10: 329 a1/2   -> 339 a1/2      0.0077
    10: 305 a1/2   -> 349 a1/2      0.0075
    10: 330 a1/2   -> 340 a1/2      0.0073
    10: 305 a1/2   -> 339 a1/2      0.0070


    11: 328 a1/2   -> 341 a1/2      0.0779
    11: 327 a1/2   -> 342 a1/2      0.0779
    11: 299 a1/2   -> 342 a1/2      0.0584
    11: 300 a1/2   -> 341 a1/2      0.0584
    11: 312 a1/2   -> 342 a1/2      0.0446
    11: 311 a1/2   -> 341 a1/2      0.0446
    11: 328 a1/2   -> 338 a1/2      0.0226
    11: 327 a1/2   -> 337 a1/2      0.0226
    11: 300 a1/2   -> 338 a1/2      0.0177
    11: 299 a1/2   -> 337 a1/2      0.0177
    11: 320 a1/2   -> 341 a1/2      0.0148
    11: 319 a1/2   -> 342 a1/2      0.0148
    11: 299 a1/2   -> 341 a1/2      0.0127
    11: 300 a1/2   -> 342 a1/2      0.0127
    11: 299 a1/2   -> 348 a1/2      0.0126
    11: 300 a1/2   -> 347 a1/2      0.0126
    11: 328 a1/2   -> 342 a1/2      0.0124
    11: 327 a1/2   -> 341 a1/2      0.0124
    11: 328 a1/2   -> 347 a1/2      0.0118
    11: 327 a1/2   -> 348 a1/2      0.0118


    12: 318 a1/2   -> 334 a1/2      0.1135
    12: 317 a1/2   -> 333 a1/2      0.1134
    12: 319 a1/2   -> 333 a1/2      0.0993
    12: 320 a1/2   -> 334 a1/2      0.0992
    12: 314 a1/2   -> 331 a1/2      0.0966
    12: 313 a1/2   -> 332 a1/2      0.0966
    12: 319 a1/2   -> 334 a1/2      0.0340
    12: 320 a1/2   -> 333 a1/2      0.0339
    12: 327 a1/2   -> 334 a1/2      0.0182
    12: 328 a1/2   -> 333 a1/2      0.0182
    12: 298 a1/2   -> 331 a1/2      0.0181
    12: 297 a1/2   -> 332 a1/2      0.0181
    12: 322 a1/2   -> 334 a1/2      0.0128
    12: 321 a1/2   -> 333 a1/2      0.0128
    12: 323 a1/2   -> 334 a1/2      0.0095
    12: 324 a1/2   -> 333 a1/2      0.0095
    12: 314 a1/2   -> 347 a1/2      0.0083
    12: 313 a1/2   -> 348 a1/2      0.0083
    12: 298 a1/2   -> 347 a1/2      0.0083
    12: 297 a1/2   -> 348 a1/2      0.0083


    13: 318 a1/2   -> 333 a1/2      0.1137
    13: 317 a1/2   -> 334 a1/2      0.1132
    13: 320 a1/2   -> 333 a1/2      0.0994
    13: 319 a1/2   -> 334 a1/2      0.0989
    13: 314 a1/2   -> 332 a1/2      0.0968
    13: 313 a1/2   -> 331 a1/2      0.0964
    13: 319 a1/2   -> 333 a1/2      0.0340
    13: 320 a1/2   -> 334 a1/2      0.0338
    13: 327 a1/2   -> 333 a1/2      0.0183
    13: 328 a1/2   -> 334 a1/2      0.0182
    13: 298 a1/2   -> 332 a1/2      0.0181
    13: 297 a1/2   -> 331 a1/2      0.0180
    13: 322 a1/2   -> 333 a1/2      0.0129
    13: 321 a1/2   -> 334 a1/2      0.0128
    13: 323 a1/2   -> 333 a1/2      0.0095
    13: 324 a1/2   -> 334 a1/2      0.0095
    13: 314 a1/2   -> 348 a1/2      0.0084
    13: 298 a1/2   -> 348 a1/2      0.0083
    13: 313 a1/2   -> 347 a1/2      0.0083
    13: 297 a1/2   -> 347 a1/2      0.0083


    14: 319 a1/2   -> 334 a1/2      0.1137
    14: 320 a1/2   -> 333 a1/2      0.1133
    14: 317 a1/2   -> 334 a1/2      0.1057
    14: 318 a1/2   -> 333 a1/2      0.1052
    14: 313 a1/2   -> 331 a1/2      0.0968
    14: 314 a1/2   -> 332 a1/2      0.0964
    14: 320 a1/2   -> 334 a1/2      0.0195
    14: 319 a1/2   -> 333 a1/2      0.0194
    14: 328 a1/2   -> 334 a1/2      0.0181
    14: 297 a1/2   -> 331 a1/2      0.0181
    14: 327 a1/2   -> 333 a1/2      0.0180
    14: 298 a1/2   -> 332 a1/2      0.0180
    14: 317 a1/2   -> 333 a1/2      0.0121
    14: 318 a1/2   -> 334 a1/2      0.0121
    14: 321 a1/2   -> 334 a1/2      0.0116
    14: 322 a1/2   -> 333 a1/2      0.0115
    14: 297 a1/2   -> 347 a1/2      0.0089
    14: 298 a1/2   -> 348 a1/2      0.0088
    14: 324 a1/2   -> 334 a1/2      0.0085
    14: 323 a1/2   -> 333 a1/2      0.0085


    15: 328 a1/2   -> 344 a1/2      0.0737
    15: 327 a1/2   -> 343 a1/2      0.0725
    15: 300 a1/2   -> 344 a1/2      0.0636
    15: 299 a1/2   -> 343 a1/2      0.0625
    15: 312 a1/2   -> 343 a1/2      0.0553
    15: 311 a1/2   -> 344 a1/2      0.0549
    15: 327 a1/2   -> 347 a1/2      0.0303
    15: 328 a1/2   -> 348 a1/2      0.0302
    15: 299 a1/2   -> 347 a1/2      0.0296
    15: 300 a1/2   -> 348 a1/2      0.0294
    15: 300 a1/2   -> 343 a1/2      0.0265
    15: 299 a1/2   -> 344 a1/2      0.0252
    15: 328 a1/2   -> 343 a1/2      0.0238
    15: 327 a1/2   -> 344 a1/2      0.0224
    15: 319 a1/2   -> 343 a1/2      0.0171
    15: 320 a1/2   -> 344 a1/2      0.0167
    15: 311 a1/2   -> 347 a1/2      0.0164
    15: 312 a1/2   -> 348 a1/2      0.0164
    15: 327 a1/2   -> 346 a1/2      0.0111
    15: 328 a1/2   -> 345 a1/2      0.0107


    16: 328 a1/2   -> 346 a1/2      0.0505
    16: 300 a1/2   -> 346 a1/2      0.0430
    16: 327 a1/2   -> 345 a1/2      0.0421
    16: 311 a1/2   -> 346 a1/2      0.0396
    16: 299 a1/2   -> 345 a1/2      0.0359
    16: 312 a1/2   -> 345 a1/2      0.0353
    16: 328 a1/2   -> 347 a1/2      0.0351
    16: 327 a1/2   -> 348 a1/2      0.0347
    16: 300 a1/2   -> 347 a1/2      0.0341
    16: 299 a1/2   -> 348 a1/2      0.0339
    16: 327 a1/2   -> 344 a1/2      0.0307
    16: 328 a1/2   -> 343 a1/2      0.0245
    16: 299 a1/2   -> 344 a1/2      0.0237
    16: 300 a1/2   -> 345 a1/2      0.0221
    16: 299 a1/2   -> 346 a1/2      0.0220
    16: 312 a1/2   -> 344 a1/2      0.0206
    16: 328 a1/2   -> 345 a1/2      0.0206
    16: 327 a1/2   -> 346 a1/2      0.0202
    16: 311 a1/2   -> 348 a1/2      0.0190
    16: 312 a1/2   -> 347 a1/2      0.0186
 

 All SPIN-POLARIZED excitation energies

 no.     E/a.u.        E/eV      f           tau/s        Symmetry
 ------------------------------------------------------------------
   1:     0.08811      2.39761   0.1018E-03   0.3938E-04  A           
   2:     0.08888      2.41858   0.3491E-04   0.1129E-03  A           
   3:     0.08931      2.43032   0.6462E-10               A           
   4:     0.08956      2.43717   0.1714E-06   0.2264E-01  A           
   5:     0.09348      2.54385   0.5125E-09    6.949      A           
   6:     0.09416      2.56228   0.3727E-04   0.9418E-04  A           
   7:     0.09803      2.66760   0.7276E-03   0.4451E-05  A           
   8:     0.10016      2.72553   0.1701E-05   0.1824E-02  A           
   9:     0.10017      2.72575   0.2121E-06   0.1462E-01  A           
  10:     0.10017      2.72575   0.2272E-09    13.65      A           
  11:     0.10073      2.74100   0.1383E-03   0.2218E-04  A           
  12:     0.10187      2.77205   0.2005E-09    14.96      A           
  13:     0.10187      2.77206   0.1241E-08    2.416      A           
  14:     0.10187      2.77210   0.5506E-06   0.5446E-02  A           
  15:     0.11540      3.14017   0.2901E-06   0.8058E-02  A           
  16:     0.11605      3.15798   0.4838E-05   0.4777E-03  A           

 tau: electric dipole radiative lifetime (in seconds)

 Unrelaxed approximate excited state dipole moments

 no.       E/eV     Excited state dipole moment (Debye)   Symmetry
 ------------------------------------------------------------------
   1:      2.39761    -0.00010     0.00002     3.72347    A
   2:      2.41858    -0.00005    -0.00000     3.73862    A
   3:      2.43032     0.00003     0.00001     3.92140    A
   4:      2.43717     0.00003    -0.00000     3.95510    A
   5:      2.54385    -0.00003     0.00004     3.62192    A
   6:      2.56228     0.00011    -0.00001     3.78693    A
   7:      2.66760    -0.00013    -0.00000     3.80763    A
   8:      2.72553     0.00002    -0.00015     4.15505    A
   9:      2.72575     0.00001    -0.00011     4.15919    A
  10:      2.72575     0.00002    -0.00002     4.15923    A
  11:      2.74100    -0.00005     0.00004     3.87339    A
  12:      2.77205    -0.00007     0.00001     4.30832    A
  13:      2.77206    -0.00005     0.00001     4.30825    A
  14:      2.77210     0.00001     0.00001     4.30782    A
  15:      3.14017     0.00196     0.00188     3.81755    A
  16:      3.15798    -0.00184    -0.00151     3.92472    A


 Normal termination of EXCITATION program part





 =======================================================================
 Electrostatic potential at the Nuclei due to electrons and other nuclei
 =======================================================================
  
         Atom                  Potential
         ----                  ---------
     1)   U                 807.64831110
     2)   O                  22.42580448
     3)   O                  22.42580465
     4)   N                  18.37569620
     5)   C                  14.72710613
     6)   H                   1.08803365
     7)   C                  14.75056477
     8)   H                   1.06964055
     9)   C                  14.73655899
    10)   H                   1.06004830
    11)   C                  14.73363741
    12)   C                  14.74603305
    13)   H                   1.06635811
    14)   C                  14.74603321
    15)   H                   1.06635822
    16)   C                  14.73363750
    17)   C                  14.73655912
    18)   H                   1.06004844
    19)   C                  14.75056515
    20)   H                   1.06964082
    21)   C                  14.72710636
    22)   H                   1.08803377
    23)   N                  18.37569639
    24)   C                  14.70684794
    25)   C                  14.70684802
    26)   Cl                 64.96752242
    27)   Cl                 64.96752237
    28)   N                  18.40442331
    29)   C                  14.74390606
    30)   H                   1.10266634
    31)   C                  14.76757775
    32)   H                   1.08524023
    33)   C                  14.75550800
    34)   H                   1.07799060
    35)   C                  14.75409392
    36)   C                  14.76401362
    37)   H                   1.08415263
    38)   C                  14.76401382
    39)   H                   1.08415270
    40)   C                  14.75409389
    41)   C                  14.75550809
    42)   H                   1.07799071
    43)   C                  14.76757807
    44)   H                   1.08524051
    45)   C                  14.74390620
    46)   H                   1.10266649
    47)   N                  18.40442342
    48)   C                  14.73194447
    49)   C                  14.73194453
 Mulliken charges used for AMS results%charges...


    =====================
     CALCULATION RESULTS
    =====================

Energy (hartree)          -109.35875784


--------------
Atomic charges
--------------
  Index   Atom    Charge
      1      U    2.0314
      2      O   -0.6692
      3      O   -0.6692
      4      N   -0.4730
      5      C    0.4418
      6      H   -0.1375
      7      C    0.1634
      8      H   -0.1898
      9      C    0.2611
     10      H   -0.1933
     11      C   -0.0016
     12      C    0.2146
     13      H   -0.1976
     14      C    0.2146
     15      H   -0.1976
     16      C   -0.0016
     17      C    0.2611
     18      H   -0.1933
     19      C    0.1634
     20      H   -0.1897
     21      C    0.4418
     22      H   -0.1375
     23      N   -0.4730
     24      C    0.1826
     25      C    0.1826
     26     Cl   -0.5003
     27     Cl   -0.5003
     28      N   -0.4100
     29      C    0.4412
     30      H   -0.1575
     31      C    0.1630
     32      H   -0.1972
     33      C    0.2564
     34      H   -0.2003
     35      C   -0.0025
     36      C    0.2112
     37      H   -0.2031
     38      C    0.2112
     39      H   -0.2031
     40      C   -0.0025
     41      C    0.2564
     42      H   -0.2003
     43      C    0.1630
     44      H   -0.1972
     45      C    0.4412
     46      H   -0.1575
     47      N   -0.4100
     48      C    0.1818
     49      C    0.1818


Dipole moment vector    (Debye):     0.00001541    0.00001541    4.23453798
              magnitude (Debye):     4.23453798


AMS application finished. Exiting.
NORMAL TERMINATION
     Total cpu time:  346362.57
  Total system time:   17799.61
 Total elapsed time:  364512.43
