

 Parallel Execution: Process Information
 ==============================================================================
 Rank   Node Name                              NodeID   MyNodeRank  NodeMaster
    0   u-0-4.local                               0          0          0
    1   u-0-4.local                               0          1         -1
    2   u-0-4.local                               1          0          1
    3   u-0-4.local                               1          1         -1
    4   u-0-4.local                               2          0          2
    5   u-0-4.local                               2          1         -1
    6   u-0-4.local                               3          0          3
    7   u-0-4.local                               3          1         -1
 ==============================================================================


May use up to 31228MB of RAM as shared memory on node 0
May use up to 31250MB of RAM as shared memory on node 1
May use up to 31250MB of RAM as shared memory on node 2
May use up to 31250MB of RAM as shared memory on node 3

 *******************************************************************************
 *                                                                             *
 *  --------------------------------                                           *
 *   Amsterdam Modeling Suite (AMS)              2022.103                      *
 *  --------------------------------                                           *
 *                                               r104886 2022-06-17            *
 *                                                                             *
 *                                                                             *
 *                              =================                              *
 *                              |               |                              *
 *                              |     A M S     |                              *
 *                              |               |                              *
 *                              =================                              *
 *                                                                             *
 *                                                                             *
 *   Online information and documentation:  https://www.scm.com/support/       *
 *   E-mail:  support@scm.com   info@scm.com                                   *
 *                                                                             *
 *   Scientific publications using AMS results must be properly referenced     *
 *   See the User Manuals (or the web site) for recommended citations          *
 *   The terms and conditions of the End User License Agreement apply to       *
 *   the use of AMS, https://www.scm.com/license-terms/                        *
 *                                                                             *
 **********************  x86_64_linux_intel / intelmpi  ************************
 
 Licensed to: Dr. Val?rie Vallet / Laboratoire PhLAM UMR 8523 / Villeneuve d'Ascq Cedex / FRANCE 2023-02-21 11:49:39
 SCM User ID: u10325
  
 AMS 2022.103  RunTime: Mar01-2023 19:00:52  ShM Nodes: 4  Procs: 8

 AMS jobname: abs-uo2_2cl_2phen.qtaim-camb3lyp.SR
 AMS jobid  : 1214742090

 Start   directory: /home/vallet/Bent-Uranyl/uo2_2cl_2phen/uo2_2cl_2phen/bent/geom-pbe0-d3-gp/ams-absorption-emission/fullkernel/
 Results directory: /home/vallet/Bent-Uranyl/uo2_2cl_2phen/uo2_2cl_2phen/bent/geom-pbe0-d3-gp/ams-absorption-emission/fullkernel/abs-uo2_2cl_2phen.qtaim-camb3lyp.SR.results/
 Scratch directory: /state/partition2/vallet/930273.phlam-s-sakura/amstmp_abs-uo2_2cl_2phen.qtaim-camb3lyp.SR_kid0.1214742090/


 Communication costs MPI_COMM_WORLD:      2.720 usec per message,   0.0087 usec per 8-byte item
 Communication costs for intra-node:      0.506 usec per message,   0.0024 usec per 8-byte item

 RNG seed: 2022949457 -2061576120 -193352189 -1052212288 126550343 -1506798491 1786373587 -926531740



                      ************************************************************************
                      *  ADF 2022.103  RunTime: Mar01-2023 19:00:52  ShM Nodes: 4  Procs: 8  *
                      ************************************************************************
  
       ****************************
       * SINGLE POINT CALCULATION *
       ****************************
 
--------
Geometry
--------
Formula: C24H16Cl2N4O2U
Atoms
  Index Symbol   x (angstrom)   y (angstrom)   z (angstrom)
      1      U     0.00000000     0.00000000     0.11721400
      2      O     0.00000000     1.73393500     0.38139900
      3      O     0.00000000    -1.73393500     0.38139900
      4      N     1.36995000     0.00000000     2.42045900
      5      C     2.68995700     0.00000000     2.42787200
      6      H     3.16412600     0.00000000     1.45286600
      7      C     3.44974600     0.00000000     3.60236300
      8      H     4.52990700     0.00000000     3.53387300
      9      C     2.80539200     0.00000000     4.80806300
     10      H     3.35580900     0.00000000     5.74281800
     11      C     1.40297800     0.00000000     4.83566000
     12      C     0.67546800     0.00000000     6.06036300
     13      H     1.23217300     0.00000000     6.99076100
     14      C    -0.67546800     0.00000000     6.06036300
     15      H    -1.23217300     0.00000000     6.99076100
     16      C    -1.40297800     0.00000000     4.83566000
     17      C    -2.80539200     0.00000000     4.80806300
     18      H    -3.35580900     0.00000000     5.74281800
     19      C    -3.44974600     0.00000000     3.60236300
     20      H    -4.52990700     0.00000000     3.53387300
     21      C    -2.68995700     0.00000000     2.42787200
     22      H    -3.16412600     0.00000000     1.45286600
     23      N    -1.36995000     0.00000000     2.42045900
     24      C    -0.71848900     0.00000000     3.60199900
     25      C     0.71848900     0.00000000     3.60199900
     26     Cl     2.49785300     0.00000000    -0.79785000
     27     Cl    -2.49785300     0.00000000    -0.79785000
     28      N     0.00000000     1.35220700    -2.32154000
     29      C     0.00000000     2.66693700    -2.31220300
     30      H     0.00000000     3.13154600    -1.33352200
     31      C     0.00000000     3.44120000    -3.47757100
     32      H     0.00000000     4.52123900    -3.40245300
     33      C     0.00000000     2.80836100    -4.69199800
     34      H     0.00000000     3.37051700    -5.61982000
     35      C     0.00000000     1.40666700    -4.73370800
     36      C     0.00000000     0.67607700    -5.95812400
     37      H     0.00000000     1.23036600    -6.89028800
     38      C     0.00000000    -0.67607700    -5.95812400
     39      H     0.00000000    -1.23036600    -6.89028800
     40      C     0.00000000    -1.40666700    -4.73370800
     41      C     0.00000000    -2.80836100    -4.69199800
     42      H     0.00000000    -3.37051700    -5.61982000
     43      C     0.00000000    -3.44120000    -3.47757100
     44      H     0.00000000    -4.52123900    -3.40245300
     45      C     0.00000000    -2.66693700    -2.31220300
     46      H     0.00000000    -3.13154600    -1.33352200
     47      N     0.00000000    -1.35220700    -2.32154000
     48      C     0.00000000    -0.71778400    -3.50376300
     49      C     0.00000000     0.71778400    -3.50376300
 
Total System Charge             0.00000
Bonding info available!
 
 
----------------
ADF Engine Input
----------------
 
 Basis
 Type TZ2P
 Core None
 End
 Save TAPE10
 AllPoints Yes
 XC
 libxc CAM-B3LYP
 End
 Symmetry NOSYM
 QTAIM
 Enabled Yes
 AnalysisLevel Extended
 End
 

 Title: *** (NO TITLE) ***

 *** adf ***



 ===========================
 A T T A C H E D   F I L E S
 ===========================
  



 ===============================
 M O D E L   P A R A M E T E R S
 ===============================
  
 Range separated functional parameters:
 RANGESEP OMEGA=    0.330000 ALPHA=    0.190000 BETA=    0.460000 ERF-LONGRANGE 
                                                                                
   
 DENSITY FUNCTIONAL POTENTIAL (scf)

   *** Range Separated Functional ***

 Regions:
   LibXC version: 5. 1. 2
   Exchange-correlation  T T T T F F F T T F F F F F F F F F F F F
   HF parameter =   0.65000000
   LIBXC GAMMA=    0.330000 ALPHA=    0.650000 BETA=   -0.460000
   CAM version of B3LYP (Hybrid GGA)
[1] T. Yanai, D. P. Tew, and N. C. Handy, Chem. Phys. Lett. 393, 51 (2004)

 SPIN  (restricted / unrestr.)
    Molecule:                          Restricted                               
    Fragments:                         Restricted                               

 OTHER ASPECTS
    Relativistic Corrections:          scalar (ZORA,MAPA)                       

    Nuclear Charge Density Model:      Point Charge Nuclei                      
    Core Treatment:                    Frozen Orbital(s)                        

    Hyperfine or Zeeman Interaction:   ---                                      


 Fragment File(s)
 ----------------
 U:
         file : /home/vallet/Bent-Uranyl/uo2_2cl_2phen/uo2_2cl_2phen/bent/geom-pbe0-d3-gp/ams-absorption-emission/fullkernel/abs-uo2_2cl_2phen.qtaim-camb3lyp.SR.results/t21.4A3BEC6C.U
         jobid: 0
         title: Uranium (TZ2P, all electron)
 O:
         file : /home/vallet/Bent-Uranyl/uo2_2cl_2phen/uo2_2cl_2phen/bent/geom-pbe0-d3-gp/ams-absorption-emission/fullkernel/abs-uo2_2cl_2phen.qtaim-camb3lyp.SR.results/t21.45A9AB4.O
         jobid: 0
         title: Oxygen (TZ2P)
 N:
         file : /home/vallet/Bent-Uranyl/uo2_2cl_2phen/uo2_2cl_2phen/bent/geom-pbe0-d3-gp/ams-absorption-emission/fullkernel/abs-uo2_2cl_2phen.qtaim-camb3lyp.SR.results/t21.2CC52123.N
         jobid: 0
         title: Nitrogen (TZ2P)
 C:
         file : /home/vallet/Bent-Uranyl/uo2_2cl_2phen/uo2_2cl_2phen/bent/geom-pbe0-d3-gp/ams-absorption-emission/fullkernel/abs-uo2_2cl_2phen.qtaim-camb3lyp.SR.results/t21.644D7229.C
         jobid: 0
         title: Carbon (TZ2P)
 H:
         file : /home/vallet/Bent-Uranyl/uo2_2cl_2phen/uo2_2cl_2phen/bent/geom-pbe0-d3-gp/ams-absorption-emission/fullkernel/abs-uo2_2cl_2phen.qtaim-camb3lyp.SR.results/t21.2655189.H
         jobid: 0
         title: Hydrogen (TZ2P)
 Cl:
         file : /home/vallet/Bent-Uranyl/uo2_2cl_2phen/uo2_2cl_2phen/bent/geom-pbe0-d3-gp/ams-absorption-emission/fullkernel/abs-uo2_2cl_2phen.qtaim-camb3lyp.SR.results/t21.72B18DAF.Cl
         jobid: 0
         title: Chlorine (TZ2P)



 ===============
 G E O M E T R Y  ***  3D  Molecule  ***
 ===============
  

 ATOMS
 =====                            X Y Z                    CHARGE
                                (Angstrom)             Nucl     +Core       At.Mass
                       --------------------------    ----------------       -------
    1  U               0.0000    0.0000    0.1172     92.00     92.00      238.0508
    2  O               0.0000    1.7339    0.3814      8.00      8.00       15.9949
    3  O               0.0000   -1.7339    0.3814      8.00      8.00       15.9949
    4  N               1.3700    0.0000    2.4205      7.00      7.00       14.0031
    5  C               2.6900    0.0000    2.4279      6.00      6.00       12.0000
    6  H               3.1641    0.0000    1.4529      1.00      1.00        1.0078
    7  C               3.4497    0.0000    3.6024      6.00      6.00       12.0000
    8  H               4.5299    0.0000    3.5339      1.00      1.00        1.0078
    9  C               2.8054    0.0000    4.8081      6.00      6.00       12.0000
   10  H               3.3558    0.0000    5.7428      1.00      1.00        1.0078
   11  C               1.4030    0.0000    4.8357      6.00      6.00       12.0000
   12  C               0.6755    0.0000    6.0604      6.00      6.00       12.0000
   13  H               1.2322    0.0000    6.9908      1.00      1.00        1.0078
   14  C              -0.6755    0.0000    6.0604      6.00      6.00       12.0000
   15  H              -1.2322    0.0000    6.9908      1.00      1.00        1.0078
   16  C              -1.4030    0.0000    4.8357      6.00      6.00       12.0000
   17  C              -2.8054    0.0000    4.8081      6.00      6.00       12.0000
   18  H              -3.3558    0.0000    5.7428      1.00      1.00        1.0078
   19  C              -3.4497    0.0000    3.6024      6.00      6.00       12.0000
   20  H              -4.5299    0.0000    3.5339      1.00      1.00        1.0078
   21  C              -2.6900    0.0000    2.4279      6.00      6.00       12.0000
   22  H              -3.1641    0.0000    1.4529      1.00      1.00        1.0078
   23  N              -1.3700    0.0000    2.4205      7.00      7.00       14.0031
   24  C              -0.7185    0.0000    3.6020      6.00      6.00       12.0000
   25  C               0.7185    0.0000    3.6020      6.00      6.00       12.0000
   26  Cl              2.4979    0.0000   -0.7978     17.00     17.00       34.9689
   27  Cl             -2.4979    0.0000   -0.7978     17.00     17.00       34.9689
   28  N               0.0000    1.3522   -2.3215      7.00      7.00       14.0031
   29  C               0.0000    2.6669   -2.3122      6.00      6.00       12.0000
   30  H               0.0000    3.1315   -1.3335      1.00      1.00        1.0078
   31  C               0.0000    3.4412   -3.4776      6.00      6.00       12.0000
   32  H               0.0000    4.5212   -3.4025      1.00      1.00        1.0078
   33  C               0.0000    2.8084   -4.6920      6.00      6.00       12.0000
   34  H               0.0000    3.3705   -5.6198      1.00      1.00        1.0078
   35  C               0.0000    1.4067   -4.7337      6.00      6.00       12.0000
   36  C               0.0000    0.6761   -5.9581      6.00      6.00       12.0000
   37  H               0.0000    1.2304   -6.8903      1.00      1.00        1.0078
   38  C               0.0000   -0.6761   -5.9581      6.00      6.00       12.0000
   39  H               0.0000   -1.2304   -6.8903      1.00      1.00        1.0078
   40  C               0.0000   -1.4067   -4.7337      6.00      6.00       12.0000
   41  C               0.0000   -2.8084   -4.6920      6.00      6.00       12.0000
   42  H               0.0000   -3.3705   -5.6198      1.00      1.00        1.0078
   43  C               0.0000   -3.4412   -3.4776      6.00      6.00       12.0000
   44  H               0.0000   -4.5212   -3.4025      1.00      1.00        1.0078
   45  C               0.0000   -2.6669   -2.3122      6.00      6.00       12.0000
   46  H               0.0000   -3.1315   -1.3335      1.00      1.00        1.0078
   47  N               0.0000   -1.3522   -2.3215      7.00      7.00       14.0031
   48  C               0.0000   -0.7178   -3.5038      6.00      6.00       12.0000
   49  C               0.0000    0.7178   -3.5038      6.00      6.00       12.0000


 FRAGMENTS
 =========                                     Atoms in this Fragment     Cart. coord.s (Angstrom)
                                               -------------------------------------------------------
    1  U                                                 1  U            0.0000    0.0000    0.1172
    2  O                                                 2  O            0.0000    1.7339    0.3814
    3  O                                                 3  O            0.0000   -1.7339    0.3814
    4  N                                                 4  N            1.3700    0.0000    2.4205
    5  N                                                23  N           -1.3700    0.0000    2.4205
    6  N                                                28  N            0.0000    1.3522   -2.3215
    7  N                                                47  N            0.0000   -1.3522   -2.3215
    8  C                                                 5  C            2.6900    0.0000    2.4279
    9  C                                                 7  C            3.4497    0.0000    3.6024
   10  C                                                 9  C            2.8054    0.0000    4.8081
   11  C                                                11  C            1.4030    0.0000    4.8357
   12  C                                                12  C            0.6755    0.0000    6.0604
   13  C                                                14  C           -0.6755    0.0000    6.0604
   14  C                                                16  C           -1.4030    0.0000    4.8357
   15  C                                                17  C           -2.8054    0.0000    4.8081
   16  C                                                19  C           -3.4497    0.0000    3.6024
   17  C                                                21  C           -2.6900    0.0000    2.4279
   18  C                                                24  C           -0.7185    0.0000    3.6020
   19  C                                                25  C            0.7185    0.0000    3.6020
   20  C                                                29  C            0.0000    2.6669   -2.3122
   21  C                                                31  C            0.0000    3.4412   -3.4776
   22  C                                                33  C            0.0000    2.8084   -4.6920
   23  C                                                35  C            0.0000    1.4067   -4.7337
   24  C                                                36  C            0.0000    0.6761   -5.9581
   25  C                                                38  C            0.0000   -0.6761   -5.9581
   26  C                                                40  C            0.0000   -1.4067   -4.7337
   27  C                                                41  C            0.0000   -2.8084   -4.6920
   28  C                                                43  C            0.0000   -3.4412   -3.4776
   29  C                                                45  C            0.0000   -2.6669   -2.3122
   30  C                                                48  C            0.0000   -0.7178   -3.5038
   31  C                                                49  C            0.0000    0.7178   -3.5038
   32  H                                                 6  H            3.1641    0.0000    1.4529
   33  H                                                 8  H            4.5299    0.0000    3.5339
   34  H                                                10  H            3.3558    0.0000    5.7428
   35  H                                                13  H            1.2322    0.0000    6.9908
   36  H                                                15  H           -1.2322    0.0000    6.9908
   37  H                                                18  H           -3.3558    0.0000    5.7428
   38  H                                                20  H           -4.5299    0.0000    3.5339
   39  H                                                22  H           -3.1641    0.0000    1.4529
   40  H                                                30  H            0.0000    3.1315   -1.3335
   41  H                                                32  H            0.0000    4.5212   -3.4025
   42  H                                                34  H            0.0000    3.3705   -5.6198
   43  H                                                37  H            0.0000    1.2304   -6.8903
   44  H                                                39  H            0.0000   -1.2304   -6.8903
   45  H                                                42  H            0.0000   -3.3705   -5.6198
   46  H                                                44  H            0.0000   -4.5212   -3.4025
   47  H                                                46  H            0.0000   -3.1315   -1.3335
   48  Cl                                               26  Cl           2.4979    0.0000   -0.7978
   49  Cl                                               27  Cl          -2.4979    0.0000   -0.7978



 =====================================
 S Y M M E T R Y ,   E L E C T R O N S
 =====================================
  
 Symmetry: NOSYM

 Irreducible Representations, including subspecies
 -------------------------------------------------
 A

 Symmetry is NOT used when fitting density


 Configuration of Valence Electrons
 ==================================
 ( determined in the SCF procedure )

 Total:   330

 Net Charge: 0 (Nuclei minus Electrons)

 Aufbau principle for MO occupations will be applied through SCF cycle no.     150
 Thereafter, the program will assign electrons to MOs that are spatially
 similar to the occupied MOs in a "reference" cycle ("KeepOrbitals").
 The reference cycle is always the PREVIOUS cycle: it will evolve with
 the SCF procedure.
1
 ***************************************************************************************************



                                      ****************************************
                                      *  B U I L D : (Fragments, Functions)  *
                                      ****************************************
  

 Total nr. of (C)SFOs (summation over all irreps) :  1159

 Specify PRINT SFO in the input file to get a full list

 Nr. of SFOs for ir.rep.           A :  1159



 ================================
 (Slater-type)  F U N C T I O N S  ***  (Basis and Fit)  ***
 ================================
  

 Atom Type    1  (U)
 ==============

 Valence Basis Sets:  43
 -----------------------
   1 S 1060.000000
   1 S  245.000000
   1 S  108.800000
   2 S  134.900000
   2 S   47.200000
   3 S   60.000000
   3 S   25.900000
   4 S   15.800000
   4 S   11.100000
   5 S   10.450000
   5 S    7.250000
   6 S    5.000000
   6 S    3.300000
   7 S    2.350000
   7 S    1.550000
   7 S    1.020000
   2 P  245.000000
   2 P   85.500000
   2 P   44.200000
   3 P   25.100000
   3 P   18.100000
   4 P   17.900000
   4 P   12.300000
   5 P    8.650000
   5 P    6.000000
   6 P    4.450000
   6 P    3.000000
   6 P    2.100000
   3 D   33.250000
   3 D   22.050000
   4 D   15.250000
   4 D   10.550000
   5 D    7.250000
   5 D    4.650000
   6 D    2.900000
   6 D    1.600000
   6 D    0.880000
   4 F   17.450000
   4 F    9.600000
   5 F    5.800000
   5 F    3.000000
   5 F    1.390000
   7 P    1.550000

 Charge Fitting Sets (for the computation of the Coulomb Potential):  87
 -----------------------------------------------------------------------
   1 S 2120.000000
   1 S 1594.965000
   1 S 1199.960000
   1 S  902.780000
   1 S  679.200000
   1 S  510.990000
   1 S  384.440000
   1 S  289.230000
   1 S  217.600000
   1 S  129.260000
   2 S  142.240000
   2 S   95.100000
   3 S   93.370000
   3 S   66.470000
   4 S   62.580000
   4 S   46.380000
   5 S   42.820000
   5 S   32.660000
   6 S   29.850000
   6 S   23.270000
   7 S   21.150000
   7 S   16.770000
   8 S   15.210000
   8 S   12.230000
   9 S   11.070000
   9 S    9.010000
  10 S    8.150000
  10 S    6.700000
  11 S    6.070000
  11 S    5.030000
  12 S    4.550000
  12 S    3.810000
  12 S    3.180000
  13 S    2.880000
  13 S    2.420000
  13 S    2.040000
   2 P  153.000000
   3 P  127.690000
   4 P  104.620000
   5 P   85.360000
   6 P   69.720000
   7 P   57.130000
   7 P   40.980000
   8 P   33.710000
   8 P   24.670000
   9 P   20.380000
   9 P   15.180000
  10 P   12.590000
  10 P    9.510000
  11 P    7.920000
  11 P    6.060000
  12 P    5.070000
  12 P    3.920000
  13 P    3.290000
  13 P    2.570000
   3 D  130.850000
   4 D   91.890000
   5 D   65.340000
   6 D   47.080000
   7 D   34.350000
   8 D   25.360000
   9 D   18.910000
   9 D   12.740000
  10 D    9.600000
  10 D    6.590000
  11 D    5.010000
  11 D    3.500000
  12 D    2.680000
  12 D    1.900000
   4 F  118.400000
   5 F   72.780000
   6 F   45.920000
   7 F   29.630000
   8 F   19.500000
   9 F   13.050000
  10 F    8.870000
  10 F    5.510000
  11 F    3.800000
  11 F    2.410000
   5 G   53.800000
   6 G   31.220000
   7 G   18.640000
   8 G   11.410000
   9 G    7.140000
  10 G    4.550000
  11 G    2.950000
  11 G    1.760000

 Atom Type    2  (O)
 ==============

 Valence Basis Sets:  10
 -----------------------
   1 S    9.800000
   1 S    6.800000
   2 S    7.580000
   2 S    2.880000
   2 S    1.720000
   2 P    4.080000
   2 P    2.080000
   2 P    1.120000
   3 D    2.000000
   4 F    3.000000

 Charge Fitting Sets (for the computation of the Coulomb Potential):  22
 -----------------------------------------------------------------------
   1 S   19.600000
   2 S   22.600000
   2 S   15.680000
   2 S   10.890000
   2 S    7.560000
   3 S    7.690000
   3 S    5.650000
   3 S    4.150000
   3 S    3.050000
   3 S    2.240000
   2 P   12.860000
   2 P    7.680000
   3 P    6.780000
   3 P    4.390000
   3 P    2.840000
   3 D    8.800000
   3 D    5.580000
   3 D    3.530000
   3 D    2.240000
   4 F    6.200000
   4 F    3.700000
   5 G    4.500000

 Atom Type    3  (N)
 ==============

 Valence Basis Sets:  10
 -----------------------
   1 S    8.740000
   1 S    5.900000
   2 S    5.150000
   2 S    2.500000
   2 S    1.500000
   2 P    3.680000
   2 P    1.880000
   2 P    1.000000
   3 D    2.200000
   4 F    3.300000

 Charge Fitting Sets (for the computation of the Coulomb Potential):  22
 -----------------------------------------------------------------------
   1 S   17.480000
   2 S   20.150000
   2 S   13.990000
   2 S    9.710000
   2 S    6.740000
   3 S    6.860000
   3 S    5.040000
   3 S    3.700000
   3 S    2.720000
   3 S    2.000000
   2 P   11.320000
   2 P    6.730000
   3 P    5.920000
   3 P    3.820000
   3 P    2.460000
   3 D    8.100000
   3 D    5.080000
   3 D    3.190000
   3 D    2.000000
   4 F    5.800000
   4 F    3.600000
   5 G    4.500000

 Atom Type    4  (C)
 ==============

 Valence Basis Sets:  10
 -----------------------
   1 S    7.680000
   1 S    5.000000
   2 S    1.280000
   2 S    2.100000
   2 S    4.600000
   2 P    0.820000
   2 P    1.480000
   2 P    2.940000
   3 D    2.200000
   4 F    3.300000

 Charge Fitting Sets (for the computation of the Coulomb Potential):  22
 -----------------------------------------------------------------------
   1 S   15.360000
   2 S   17.530000
   2 S   12.070000
   2 S    8.310000
   2 S    5.730000
   3 S    5.780000
   3 S    4.220000
   3 S    3.080000
   3 S    2.250000
   3 S    1.640000
   2 P    9.880000
   2 P    5.800000
   3 P    5.050000
   3 P    3.230000
   3 P    2.060000
   3 D    7.200000
   3 D    4.400000
   3 D    2.690000
   3 D    1.640000
   4 F    5.400000
   4 F    3.550000
   5 G    4.500000

 Atom Type    5  (H)
 ==============

 Valence Basis Sets:   5
 -----------------------
   1 S    0.690000
   1 S    0.920000
   1 S    1.580000
   2 P    1.250000
   3 D    2.500000

 Charge Fitting Sets (for the computation of the Coulomb Potential):  11
 -----------------------------------------------------------------------
   1 S    3.160000
   1 S    2.090000
   1 S    1.380000
   2 S    1.500000
   2 P    4.000000
   2 P    2.650000
   2 P    1.750000
   3 D    4.000000
   3 D    2.500000
   4 F    3.000000
   5 G    4.000000

 Atom Type    6  (Cl)
 ==============

 Valence Basis Sets:  14
 -----------------------
   1 S   20.300000
   1 S   15.250000
   2 S    6.250000
   2 S    4.450000
   2 P    8.850000
   2 P    5.050000
   3 S    3.450000
   3 S    2.300000
   3 S    1.600000
   3 P    3.350000
   3 P    2.050000
   3 P    1.200000
   3 D    2.000000
   4 F    2.000000

 Charge Fitting Sets (for the computation of the Coulomb Potential):  30
 -----------------------------------------------------------------------
   1 S   40.600000
   1 S   24.830000
   2 S   28.080000
   2 S   19.200000
   3 S   19.250000
   3 S   13.970000
   3 S   10.130000
   4 S    9.710000
   4 S    7.320000
   4 S    5.510000
   5 S    5.170000
   5 S    4.000000
   5 S    3.100000
   5 S    2.400000
   2 P   29.150000
   3 P   21.740000
   4 P   16.160000
   4 P    9.600000
   5 P    7.180000
   5 P    4.480000
   5 P    2.800000
   3 D   21.950000
   4 D   15.750000
   4 D    9.040000
   5 D    6.550000
   5 D    3.960000
   5 D    2.400000
   4 F    5.000000
   4 F    3.000000
   5 G    3.500000


 BAS: List of all Elementary Cartesian Basis Functions
 =====================================================

 The numbering in the list below (to the right of the function characteristics) is referred
 to in print-outs of MO eigenvectors and Mulliken populations in the BAS representation
 (as contrasted to the SFO representation).

 Notes:
 1. The functions are characterized by a polynomial prefactor (powers of x,y,z and r) and
    an exponential decay factor alpha.
 2. Since the basis sets are specific for an atom TYPE, the individual functions occur on
    all atoms of that type.
 3. The word 'Core' in the left margin signals that it is a Core Function (CF) : not a
    degree of freedom in the valence set, but only used to ensure orthogonalization of
    the other valence basis functions on the frozen Core Orbitals.


 (power of) X  Y  Z  R     Alpha  on Atom
            ==========     =====     ==========

 U                                    1
                                  ---------------------------------------------------------------------------
            0  0  0  0  1060.000      1
            0  0  0  0   245.000      2
            0  0  0  0   108.800      3
            0  0  0  1   134.900      4
            0  0  0  1    47.200      5
            0  0  0  2    60.000      6
            0  0  0  2    25.900      7
            0  0  0  3    15.800      8
            0  0  0  3    11.100      9
            0  0  0  4    10.450     10
            0  0  0  4     7.250     11
            0  0  0  5     5.000     12
            0  0  0  5     3.300     13
            0  0  0  6     2.350     14
            0  0  0  6     1.550     15
            0  0  0  6     1.020     16
            1  0  0  0   245.000     17
            0  1  0  0   245.000     18
            0  0  1  0   245.000     19
            1  0  0  0    85.500     20
            0  1  0  0    85.500     21
            0  0  1  0    85.500     22
            1  0  0  0    44.200     23
            0  1  0  0    44.200     24
            0  0  1  0    44.200     25
            1  0  0  1    25.100     26
            0  1  0  1    25.100     27
            0  0  1  1    25.100     28
            1  0  0  1    18.100     29
            0  1  0  1    18.100     30
            0  0  1  1    18.100     31
            1  0  0  2    17.900     32
            0  1  0  2    17.900     33
            0  0  1  2    17.900     34
            1  0  0  2    12.300     35
            0  1  0  2    12.300     36
            0  0  1  2    12.300     37
            1  0  0  3     8.650     38
            0  1  0  3     8.650     39
            0  0  1  3     8.650     40
            1  0  0  3     6.000     41
            0  1  0  3     6.000     42
            0  0  1  3     6.000     43
            1  0  0  4     4.450     44
            0  1  0  4     4.450     45
            0  0  1  4     4.450     46
            1  0  0  4     3.000     47
            0  1  0  4     3.000     48
            0  0  1  4     3.000     49
            1  0  0  4     2.100     50
            0  1  0  4     2.100     51
            0  0  1  4     2.100     52
            2  0  0  0    33.250     53
            1  1  0  0    33.250     54
            1  0  1  0    33.250     55
            0  2  0  0    33.250     56
            0  1  1  0    33.250     57
            0  0  2  0    33.250     58
            2  0  0  0    22.050     59
            1  1  0  0    22.050     60
            1  0  1  0    22.050     61
            0  2  0  0    22.050     62
            0  1  1  0    22.050     63
            0  0  2  0    22.050     64
            2  0  0  1    15.250     65
            1  1  0  1    15.250     66
            1  0  1  1    15.250     67
            0  2  0  1    15.250     68
            0  1  1  1    15.250     69
            0  0  2  1    15.250     70
            2  0  0  1    10.550     71
            1  1  0  1    10.550     72
            1  0  1  1    10.550     73
            0  2  0  1    10.550     74
            0  1  1  1    10.550     75
            0  0  2  1    10.550     76
            2  0  0  2     7.250     77
            1  1  0  2     7.250     78
            1  0  1  2     7.250     79
            0  2  0  2     7.250     80
            0  1  1  2     7.250     81
            0  0  2  2     7.250     82
            2  0  0  2     4.650     83
            1  1  0  2     4.650     84
            1  0  1  2     4.650     85
            0  2  0  2     4.650     86
            0  1  1  2     4.650     87
            0  0  2  2     4.650     88
            2  0  0  3     2.900     89
            1  1  0  3     2.900     90
            1  0  1  3     2.900     91
            0  2  0  3     2.900     92
            0  1  1  3     2.900     93
            0  0  2  3     2.900     94
            2  0  0  3     1.600     95
            1  1  0  3     1.600     96
            1  0  1  3     1.600     97
            0  2  0  3     1.600     98
            0  1  1  3     1.600     99
            0  0  2  3     1.600    100
            2  0  0  3     0.880    101
            1  1  0  3     0.880    102
            1  0  1  3     0.880    103
            0  2  0  3     0.880    104
            0  1  1  3     0.880    105
            0  0  2  3     0.880    106
            3  0  0  0    17.450    107
            2  1  0  0    17.450    108
            2  0  1  0    17.450    109
            1  2  0  0    17.450    110
            1  1  1  0    17.450    111
            1  0  2  0    17.450    112
            0  3  0  0    17.450    113
            0  2  1  0    17.450    114
            0  1  2  0    17.450    115
            0  0  3  0    17.450    116
            3  0  0  0     9.600    117
            2  1  0  0     9.600    118
            2  0  1  0     9.600    119
            1  2  0  0     9.600    120
            1  1  1  0     9.600    121
            1  0  2  0     9.600    122
            0  3  0  0     9.600    123
            0  2  1  0     9.600    124
            0  1  2  0     9.600    125
            0  0  3  0     9.600    126
            3  0  0  1     5.800    127
            2  1  0  1     5.800    128
            2  0  1  1     5.800    129
            1  2  0  1     5.800    130
            1  1  1  1     5.800    131
            1  0  2  1     5.800    132
            0  3  0  1     5.800    133
            0  2  1  1     5.800    134
            0  1  2  1     5.800    135
            0  0  3  1     5.800    136
            3  0  0  1     3.000    137
            2  1  0  1     3.000    138
            2  0  1  1     3.000    139
            1  2  0  1     3.000    140
            1  1  1  1     3.000    141
            1  0  2  1     3.000    142
            0  3  0  1     3.000    143
            0  2  1  1     3.000    144
            0  1  2  1     3.000    145
            0  0  3  1     3.000    146
            3  0  0  1     1.390    147
            2  1  0  1     1.390    148
            2  0  1  1     1.390    149
            1  2  0  1     1.390    150
            1  1  1  1     1.390    151
            1  0  2  1     1.390    152
            0  3  0  1     1.390    153
            0  2  1  1     1.390    154
            0  1  2  1     1.390    155
            0  0  3  1     1.390    156
            1  0  0  5     1.550    157
            0  1  0  5     1.550    158
            0  0  1  5     1.550    159

 O                                    2    3
                                  ---------------------------------------------------------------------------
            0  0  0  0     9.800    160  190
            0  0  0  0     6.800    161  191
            0  0  0  1     7.580    162  192
            0  0  0  1     2.880    163  193
            0  0  0  1     1.720    164  194
            1  0  0  0     4.080    165  195
            0  1  0  0     4.080    166  196
            0  0  1  0     4.080    167  197
            1  0  0  0     2.080    168  198
            0  1  0  0     2.080    169  199
            0  0  1  0     2.080    170  200
            1  0  0  0     1.120    171  201
            0  1  0  0     1.120    172  202
            0  0  1  0     1.120    173  203
            2  0  0  0     2.000    174  204
            1  1  0  0     2.000    175  205
            1  0  1  0     2.000    176  206
            0  2  0  0     2.000    177  207
            0  1  1  0     2.000    178  208
            0  0  2  0     2.000    179  209
            3  0  0  0     3.000    180  210
            2  1  0  0     3.000    181  211
            2  0  1  0     3.000    182  212
            1  2  0  0     3.000    183  213
            1  1  1  0     3.000    184  214
            1  0  2  0     3.000    185  215
            0  3  0  0     3.000    186  216
            0  2  1  0     3.000    187  217
            0  1  2  0     3.000    188  218
            0  0  3  0     3.000    189  219

 N                                    4    5    6    7
                                  ---------------------------------------------------------------------------
            0  0  0  0     8.740    220  250  280  310
            0  0  0  0     5.900    221  251  281  311
            0  0  0  1     5.150    222  252  282  312
            0  0  0  1     2.500    223  253  283  313
            0  0  0  1     1.500    224  254  284  314
            1  0  0  0     3.680    225  255  285  315
            0  1  0  0     3.680    226  256  286  316
            0  0  1  0     3.680    227  257  287  317
            1  0  0  0     1.880    228  258  288  318
            0  1  0  0     1.880    229  259  289  319
            0  0  1  0     1.880    230  260  290  320
            1  0  0  0     1.000    231  261  291  321
            0  1  0  0     1.000    232  262  292  322
            0  0  1  0     1.000    233  263  293  323
            2  0  0  0     2.200    234  264  294  324
            1  1  0  0     2.200    235  265  295  325
            1  0  1  0     2.200    236  266  296  326
            0  2  0  0     2.200    237  267  297  327
            0  1  1  0     2.200    238  268  298  328
            0  0  2  0     2.200    239  269  299  329
            3  0  0  0     3.300    240  270  300  330
            2  1  0  0     3.300    241  271  301  331
            2  0  1  0     3.300    242  272  302  332
            1  2  0  0     3.300    243  273  303  333
            1  1  1  0     3.300    244  274  304  334
            1  0  2  0     3.300    245  275  305  335
            0  3  0  0     3.300    246  276  306  336
            0  2  1  0     3.300    247  277  307  337
            0  1  2  0     3.300    248  278  308  338
            0  0  3  0     3.300    249  279  309  339

 C                                    8    9   10   11   12   13   14   15   16   17   18   19   20   21   22
                                     23   24   25   26   27   28   29   30   31
                                  ---------------------------------------------------------------------------
            0  0  0  0     7.680    340  370  400  430  460  490  520  550  580  610  640  670  700  730  760
                                    790  820  850  880  910  940  970 1000 1030
            0  0  0  0     5.000    341  371  401  431  461  491  521  551  581  611  641  671  701  731  761
                                    791  821  851  881  911  941  971 1001 1031
            0  0  0  1     1.280    342  372  402  432  462  492  522  552  582  612  642  672  702  732  762
                                    792  822  852  882  912  942  972 1002 1032
            0  0  0  1     2.100    343  373  403  433  463  493  523  553  583  613  643  673  703  733  763
                                    793  823  853  883  913  943  973 1003 1033
            0  0  0  1     4.600    344  374  404  434  464  494  524  554  584  614  644  674  704  734  764
                                    794  824  854  884  914  944  974 1004 1034
            1  0  0  0     0.820    345  375  405  435  465  495  525  555  585  615  645  675  705  735  765
                                    795  825  855  885  915  945  975 1005 1035
            0  1  0  0     0.820    346  376  406  436  466  496  526  556  586  616  646  676  706  736  766
                                    796  826  856  886  916  946  976 1006 1036
            0  0  1  0     0.820    347  377  407  437  467  497  527  557  587  617  647  677  707  737  767
                                    797  827  857  887  917  947  977 1007 1037
            1  0  0  0     1.480    348  378  408  438  468  498  528  558  588  618  648  678  708  738  768
                                    798  828  858  888  918  948  978 1008 1038
            0  1  0  0     1.480    349  379  409  439  469  499  529  559  589  619  649  679  709  739  769
                                    799  829  859  889  919  949  979 1009 1039
            0  0  1  0     1.480    350  380  410  440  470  500  530  560  590  620  650  680  710  740  770
                                    800  830  860  890  920  950  980 1010 1040
            1  0  0  0     2.940    351  381  411  441  471  501  531  561  591  621  651  681  711  741  771
                                    801  831  861  891  921  951  981 1011 1041
            0  1  0  0     2.940    352  382  412  442  472  502  532  562  592  622  652  682  712  742  772
                                    802  832  862  892  922  952  982 1012 1042
            0  0  1  0     2.940    353  383  413  443  473  503  533  563  593  623  653  683  713  743  773
                                    803  833  863  893  923  953  983 1013 1043
            2  0  0  0     2.200    354  384  414  444  474  504  534  564  594  624  654  684  714  744  774
                                    804  834  864  894  924  954  984 1014 1044
            1  1  0  0     2.200    355  385  415  445  475  505  535  565  595  625  655  685  715  745  775
                                    805  835  865  895  925  955  985 1015 1045
            1  0  1  0     2.200    356  386  416  446  476  506  536  566  596  626  656  686  716  746  776
                                    806  836  866  896  926  956  986 1016 1046
            0  2  0  0     2.200    357  387  417  447  477  507  537  567  597  627  657  687  717  747  777
                                    807  837  867  897  927  957  987 1017 1047
            0  1  1  0     2.200    358  388  418  448  478  508  538  568  598  628  658  688  718  748  778
                                    808  838  868  898  928  958  988 1018 1048
            0  0  2  0     2.200    359  389  419  449  479  509  539  569  599  629  659  689  719  749  779
                                    809  839  869  899  929  959  989 1019 1049
            3  0  0  0     3.300    360  390  420  450  480  510  540  570  600  630  660  690  720  750  780
                                    810  840  870  900  930  960  990 1020 1050
            2  1  0  0     3.300    361  391  421  451  481  511  541  571  601  631  661  691  721  751  781
                                    811  841  871  901  931  961  991 1021 1051
            2  0  1  0     3.300    362  392  422  452  482  512  542  572  602  632  662  692  722  752  782
                                    812  842  872  902  932  962  992 1022 1052
            1  2  0  0     3.300    363  393  423  453  483  513  543  573  603  633  663  693  723  753  783
                                    813  843  873  903  933  963  993 1023 1053
            1  1  1  0     3.300    364  394  424  454  484  514  544  574  604  634  664  694  724  754  784
                                    814  844  874  904  934  964  994 1024 1054
            1  0  2  0     3.300    365  395  425  455  485  515  545  575  605  635  665  695  725  755  785
                                    815  845  875  905  935  965  995 1025 1055
            0  3  0  0     3.300    366  396  426  456  486  516  546  576  606  636  666  696  726  756  786
                                    816  846  876  906  936  966  996 1026 1056
            0  2  1  0     3.300    367  397  427  457  487  517  547  577  607  637  667  697  727  757  787
                                    817  847  877  907  937  967  997 1027 1057
            0  1  2  0     3.300    368  398  428  458  488  518  548  578  608  638  668  698  728  758  788
                                    818  848  878  908  938  968  998 1028 1058
            0  0  3  0     3.300    369  399  429  459  489  519  549  579  609  639  669  699  729  759  789
                                    819  849  879  909  939  969  999 1029 1059

 H                                   32   33   34   35   36   37   38   39   40   41   42   43   44   45   46
                                     47
                                  ---------------------------------------------------------------------------
            0  0  0  0     0.690   1060 1072 1084 1096 1108 1120 1132 1144 1156 1168 1180 1192 1204 1216 1228
                                   1240
            0  0  0  0     0.920   1061 1073 1085 1097 1109 1121 1133 1145 1157 1169 1181 1193 1205 1217 1229
                                   1241
            0  0  0  0     1.580   1062 1074 1086 1098 1110 1122 1134 1146 1158 1170 1182 1194 1206 1218 1230
                                   1242
            1  0  0  0     1.250   1063 1075 1087 1099 1111 1123 1135 1147 1159 1171 1183 1195 1207 1219 1231
                                   1243
            0  1  0  0     1.250   1064 1076 1088 1100 1112 1124 1136 1148 1160 1172 1184 1196 1208 1220 1232
                                   1244
            0  0  1  0     1.250   1065 1077 1089 1101 1113 1125 1137 1149 1161 1173 1185 1197 1209 1221 1233
                                   1245
            2  0  0  0     2.500   1066 1078 1090 1102 1114 1126 1138 1150 1162 1174 1186 1198 1210 1222 1234
                                   1246
            1  1  0  0     2.500   1067 1079 1091 1103 1115 1127 1139 1151 1163 1175 1187 1199 1211 1223 1235
                                   1247
            1  0  1  0     2.500   1068 1080 1092 1104 1116 1128 1140 1152 1164 1176 1188 1200 1212 1224 1236
                                   1248
            0  2  0  0     2.500   1069 1081 1093 1105 1117 1129 1141 1153 1165 1177 1189 1201 1213 1225 1237
                                   1249
            0  1  1  0     2.500   1070 1082 1094 1106 1118 1130 1142 1154 1166 1178 1190 1202 1214 1226 1238
                                   1250
            0  0  2  0     2.500   1071 1083 1095 1107 1119 1131 1143 1155 1167 1179 1191 1203 1215 1227 1239
                                   1251

 Cl                                  48   49
                                  ---------------------------------------------------------------------------
            0  0  0  0    20.300   1252 1290
            0  0  0  0    15.250   1253 1291
            0  0  0  1     6.250   1254 1292
            0  0  0  1     4.450   1255 1293
            1  0  0  0     8.850   1256 1294
            0  1  0  0     8.850   1257 1295
            0  0  1  0     8.850   1258 1296
            1  0  0  0     5.050   1259 1297
            0  1  0  0     5.050   1260 1298
            0  0  1  0     5.050   1261 1299
            0  0  0  2     3.450   1262 1300
            0  0  0  2     2.300   1263 1301
            0  0  0  2     1.600   1264 1302
            1  0  0  1     3.350   1265 1303
            0  1  0  1     3.350   1266 1304
            0  0  1  1     3.350   1267 1305
            1  0  0  1     2.050   1268 1306
            0  1  0  1     2.050   1269 1307
            0  0  1  1     2.050   1270 1308
            1  0  0  1     1.200   1271 1309
            0  1  0  1     1.200   1272 1310
            0  0  1  1     1.200   1273 1311
            2  0  0  0     2.000   1274 1312
            1  1  0  0     2.000   1275 1313
            1  0  1  0     2.000   1276 1314
            0  2  0  0     2.000   1277 1315
            0  1  1  0     2.000   1278 1316
            0  0  2  0     2.000   1279 1317
            3  0  0  0     2.000   1280 1318
            2  1  0  0     2.000   1281 1319
            2  0  1  0     2.000   1282 1320
            1  2  0  0     2.000   1283 1321
            1  1  1  0     2.000   1284 1322
            1  0  2  0     2.000   1285 1323
            0  3  0  0     2.000   1286 1324
            0  2  1  0     2.000   1287 1325
            0  1  2  0     2.000   1288 1326
            0  0  3  0     2.000   1289 1327

 Total number of charge fitting functions (nprimf)      3929
 Total number of Cartesian basis functions (naos)       1327
 Total number of Cartesian core functions  (ncos)          0

1
 ***************************************************************************************************



                                              ***********************
                                              *  T E C H N I C A L  *
                                              ***********************
  



 =============================================================
 P A R A L L E L I Z A T I O N  and  V E C T O R I Z A T I O N
 =============================================================
  
 Nr of parallel processes:                                8
 Maximum vector length in NumInt loops:                 128



 =====================
 S C F   U P D A T E S
 =====================
  
 Max. nr. of cycles:                               300
 Convergence criterion:                              0.0000010000
   secondary criterion:                              0.0010000000

 Mix parameter (when DIIS does not apply):           0.2000000000
 Mixed ADIIS+SDIIS will be used                  
    Max number of expansion vectors:                10
    Pure ADIIS when Max([F,P]) is above              0.1000000000
    Pure SDIIS when Max([F,P]) is below              0.0010000000
 Automatic ElectronSmearing (in case of problematic SCF convergence) disabled



 =================
 P R E C I S I O N  ***  (General: NumInt, NeglectFunctionTails, ...)  ***
 =================
  

 NumInt:           Target precision:                 4.0000000000
 -------           Initial precision:                4.0000000000
                   Min. precision (optimization):    4.0000000000

 Neglect Functions:          Basis functions:        0.1000000000E-05
 ------------------          Fit functions:          0.1000000000E-05



 ===========================
 L I N E A R   S C A L I N G
 ===========================
  

 Cut-off radii density fit:                        0.1000000000E-07
 Overlap cut-off criterion AO matrix elements:     0.1000000000E-05
 Cut-offs for Coulomb potential and fitted density:0.1000000000E-07
 Cut-off criterion for Coulomb multipole terms:    0.1000000000E-07
 Progressive Convergence parameter:                 0.000000000    
1
 ***************************************************************************************************



                                            ***************************
                                            *  C O M P U T A T I O N  *
                                            ***************************
  

 Number of elements of the density matrix on this node (used, total):    117879    881128



 ===========================================
 Numerical Integration : Fuzzy Cells (Becke)
 ===========================================
  
 Becke grid quality: NORMAL         
  
 Lebedev angular grid order:             min:  11 max:  23
 Nr. of radial points:                   min:  46 max: 175

 Total nr. of points:     342992
 Nr. of blocks:             2680
 Block length:               128
 Nr. of dummy points:         48


 Test of Precision of the Numerical Integration Grid
 ===================================================

 Integral of the Total Core Density:                   0.00000000000000



 ========================
 Density Fitting (zlmFit)
 ========================
  
 ZlmFit Fit Quality: NORMAL         
  
 Max L-expansion:                        min:   6 max:   7
 Nr. of radial interpolation points:     min:  39 max: 150



 ======================
 RI Hartree-Fock Scheme
 ======================
  
 Fit Set Quality     : NORMAL
 Threshold Quality   : NORMAL
 Integration Quality : NORMAL
 Response Quality    : DEFAULT
 Is Range Separated  :  T
 Type of Range Separation : 
 Long-Range: Erf potential                                                      
                                                                                
   
 Asymptotic Coulomb       :   0.650000000000000     
 
 RIHartreeFock Dependency: number of modified vectors:          54



 =====
 S C F  ***  ScaSCF  ***
 =====
  
 Initial density matrix is calculated as sum of fragments

 CYCLE    1
 SCF Error: norm([F,P])=     16.851061551441, max([F,P])=      2.158301024017
 orbitals (Q,E):
 ---------------
 A :156...175        ( 2.00    -0.4361)  ( 2.00    -0.4344)  ( 2.00    -0.4308)  ( 2.00    -0.4255)
                     ( 2.00    -0.4245)  ( 2.00    -0.4094)  ( 2.00    -0.4088)  ( 2.00    -0.3946)
                     ( 2.00    -0.3939)  ( 2.00    -0.3811)  ( 0.00    -0.2428)  ( 0.00    -0.2409)
                     ( 0.00    -0.2340)  ( 0.00    -0.2336)  ( 0.00    -0.1848)  ( 0.00    -0.1841)
                     ( 0.00    -0.1549)  ( 0.00    -0.1531)  ( 0.00    -0.1126)  ( 0.00    -0.1125)

 CYCLE    2
   MIX coefficients:  0.8000  0.2000
 SCF Error: norm([F,P])=      2.707900714105, max([F,P])=      0.384653901596
 orbitals (Q,E):
 ---------------
 A :156...166        ( 2.00    -0.4069)  ( 2.00    -0.4002)  ( 2.00    -0.3971)  ( 2.00    -0.3944)
                     ( 2.00    -0.3913)  ( 2.00    -0.3783)  ( 2.00    -0.3720)  ( 2.00    -0.3686)
                     ( 2.00    -0.3639)  ( 2.00    -0.3571)  ( 0.00    -0.1893)

 CYCLE    3
  SDIIS (wt  0.000): -0.5385  1.5385
 A-DIIS (wt  1.000):  0.0000  1.0000
  DIIS coefficients:  0.0000  1.0000
 SCF Error: norm([F,P])=      1.178978187810, max([F,P])=      0.152119387328
 orbitals (Q,E):
 ---------------
 A :156...166        ( 2.00    -0.2843)  ( 2.00    -0.2821)  ( 2.00    -0.2786)  ( 2.00    -0.2721)
                     ( 2.00    -0.2664)  ( 2.00    -0.2652)  ( 2.00    -0.2638)  ( 2.00    -0.2591)
                     ( 2.00    -0.2513)  ( 2.00    -0.2363)  ( 0.00    -0.1501)

 CYCLE    4
  SDIIS (wt  0.000): -0.2605  1.1498  0.1107
 A-DIIS (wt  1.000):  0.0000  0.8452  0.1548
  DIIS coefficients:  0.0000  0.8452  0.1548
 SCF Error: norm([F,P])=      4.154918571656, max([F,P])=      0.883101255438
 orbitals (Q,E):
 ---------------
 A :156...166        ( 2.00    -0.2914)  ( 2.00    -0.2832)  ( 2.00    -0.2769)  ( 2.00    -0.2766)
                     ( 2.00    -0.2721)  ( 2.00    -0.2708)  ( 2.00    -0.2675)  ( 2.00    -0.2655)
                     ( 2.00    -0.2621)  ( 2.00    -0.2515)  ( 0.00    -0.0138)

 CYCLE    5
  SDIIS (wt  0.364):  0.0269  0.2947  0.0236  0.6547
 A-DIIS (wt  0.636):  0.0000  0.0499  0.0000  0.9501
  DIIS coefficients:  0.0098  0.1391  0.0086  0.8425
 SCF Error: norm([F,P])=      0.571496020177, max([F,P])=      0.063948749428
 orbitals (Q,E):
 ---------------
 A :156...166        ( 2.00    -0.3666)  ( 2.00    -0.3451)  ( 2.00    -0.3362)  ( 2.00    -0.3335)
                     ( 2.00    -0.3276)  ( 2.00    -0.3269)  ( 2.00    -0.3224)  ( 2.00    -0.3219)
                     ( 2.00    -0.3202)  ( 2.00    -0.3114)  ( 0.00    -0.0705)

 CYCLE    6
  SDIIS (wt  0.364): -0.0627  0.1492  0.0140  0.3838  0.5157
 A-DIIS (wt  0.636):  0.0000  0.0000  0.0000  0.3995  0.6005
  DIIS coefficients: -0.0228  0.0543  0.0051  0.3938  0.5696
 SCF Error: norm([F,P])=      0.505287004981, max([F,P])=      0.076494013561
 orbitals (Q,E):
 ---------------
 A :156...166        ( 2.00    -0.3331)  ( 2.00    -0.3330)  ( 2.00    -0.3277)  ( 2.00    -0.3201)
                     ( 2.00    -0.3201)  ( 2.00    -0.3166)  ( 2.00    -0.3133)  ( 2.00    -0.3112)
                     ( 2.00    -0.3105)  ( 2.00    -0.2975)  ( 0.00    -0.0539)

 CYCLE    7
  SDIIS (wt  0.559):  0.0040 -0.0137 -0.0122  0.1847  0.3164  0.5208
 A-DIIS (wt  0.441):  0.0000  0.0000  0.0000  0.0000  0.1746  0.8254
  DIIS coefficients:  0.0022 -0.0077 -0.0068  0.1034  0.2539  0.6550
 SCF Error: norm([F,P])=      0.239900233371, max([F,P])=      0.044614893628
 orbitals (Q,E):
 ---------------
 A :156...166        ( 2.00    -0.3324)  ( 2.00    -0.3283)  ( 2.00    -0.3231)  ( 2.00    -0.3156)
                     ( 2.00    -0.3152)  ( 2.00    -0.3122)  ( 2.00    -0.3096)  ( 2.00    -0.3070)
                     ( 2.00    -0.3061)  ( 2.00    -0.2924)  ( 0.00    -0.0509)

 CYCLE    8
  SDIIS (wt  0.737): -0.0138  0.0063  0.0007  0.0235  0.1171  0.3667  0.4996
 A-DIIS (wt  0.263):  0.0000  0.0000  0.0000  0.0000  0.0000  0.3259  0.6741
  DIIS coefficients: -0.0102  0.0046  0.0005  0.0173  0.0863  0.3559  0.5456
 SCF Error: norm([F,P])=      0.152075576138, max([F,P])=      0.027069695003
 orbitals (Q,E):
 ---------------
 A :156...166        ( 2.00    -0.3351)  ( 2.00    -0.3295)  ( 2.00    -0.3246)  ( 2.00    -0.3171)
                     ( 2.00    -0.3166)  ( 2.00    -0.3133)  ( 2.00    -0.3107)  ( 2.00    -0.3083)
                     ( 2.00    -0.3076)  ( 2.00    -0.2943)  ( 0.00    -0.0515)

 CYCLE    9
  SDIIS (wt  0.979): -0.0016 -0.0030 -0.0005 -0.0055  0.0122  0.1495  0.2722  0.5767
 A-DIIS (wt  0.021):  0.0000  0.0000  0.0000  0.0000  0.0000  0.0000  0.0000  1.0000
  DIIS coefficients: -0.0016 -0.0029 -0.0005 -0.0054  0.0119  0.1464  0.2665  0.5856
 SCF Error: norm([F,P])=      0.019480624635, max([F,P])=      0.003066693530
 orbitals (Q,E):
 ---------------
 A :156...166        ( 2.00    -0.3341)  ( 2.00    -0.3297)  ( 2.00    -0.3244)  ( 2.00    -0.3172)
                     ( 2.00    -0.3165)  ( 2.00    -0.3133)  ( 2.00    -0.3105)  ( 2.00    -0.3082)
                     ( 2.00    -0.3075)  ( 2.00    -0.2942)  ( 0.00    -0.0517)

 CYCLE   10
  SDIIS (wt  1.000):  0.0003 -0.0017 -0.0004 -0.0049 -0.0064  0.0325  0.0730  0.3159  0.5917
  DIIS coefficients:  0.0003 -0.0017 -0.0004 -0.0049 -0.0064  0.0325  0.0730  0.3159  0.5917
 SCF Error: norm([F,P])=      0.004247046581, max([F,P])=      0.000783593129
 orbitals (Q,E):
 ---------------
 A :156...166        ( 2.00    -0.3344)  ( 2.00    -0.3297)  ( 2.00    -0.3246)  ( 2.00    -0.3172)
                     ( 2.00    -0.3167)  ( 2.00    -0.3134)  ( 2.00    -0.3107)  ( 2.00    -0.3084)
                     ( 2.00    -0.3076)  ( 2.00    -0.2943)  ( 0.00    -0.0516)

 CYCLE   11
  SDIIS (wt  1.000):  0.0008 -0.0003 -0.0002 -0.0010 -0.0068 -0.0237 -0.0366  0.0061  0.2600  0.8018
  DIIS coefficients:  0.0008 -0.0003 -0.0002 -0.0010 -0.0068 -0.0237 -0.0366  0.0061  0.2600  0.8018
 SCF Error: norm([F,P])=      0.001382314427, max([F,P])=      0.000251390668
 orbitals (Q,E):
 ---------------
 A :156...166        ( 2.00    -0.3343)  ( 2.00    -0.3297)  ( 2.00    -0.3245)  ( 2.00    -0.3172)
                     ( 2.00    -0.3166)  ( 2.00    -0.3134)  ( 2.00    -0.3107)  ( 2.00    -0.3083)
                     ( 2.00    -0.3075)  ( 2.00    -0.2943)  ( 0.00    -0.0516)

 CYCLE   12
  SDIIS (wt  1.000):  0.0004 -0.0000 -0.0001 -0.0016 -0.0130 -0.0196 -0.0347  0.0380  0.3383  0.6923
  DIIS coefficients:  0.0004 -0.0000 -0.0001 -0.0016 -0.0130 -0.0196 -0.0347  0.0380  0.3383  0.6923
 SCF Error: norm([F,P])=      0.000644007805, max([F,P])=      0.000119102851
 orbitals (Q,E):
 ---------------
 A :156...166        ( 2.00    -0.3344)  ( 2.00    -0.3297)  ( 2.00    -0.3245)  ( 2.00    -0.3172)
                     ( 2.00    -0.3166)  ( 2.00    -0.3134)  ( 2.00    -0.3107)  ( 2.00    -0.3083)
                     ( 2.00    -0.3076)  ( 2.00    -0.2943)  ( 0.00    -0.0516)

 CYCLE   13
  SDIIS (wt  1.000):  0.0000 -0.0001 -0.0002 -0.0038 -0.0060 -0.0141 -0.0099  0.0592  0.3359  0.6393
  DIIS coefficients:  0.0000 -0.0001 -0.0002 -0.0038 -0.0060 -0.0141 -0.0099  0.0592  0.3359  0.6393
 SCF Error: norm([F,P])=      0.000328135940, max([F,P])=      0.000059161175
 orbitals (Q,E):
 ---------------
 A :156...166        ( 2.00    -0.3344)  ( 2.00    -0.3297)  ( 2.00    -0.3245)  ( 2.00    -0.3172)
                     ( 2.00    -0.3166)  ( 2.00    -0.3134)  ( 2.00    -0.3107)  ( 2.00    -0.3084)
                     ( 2.00    -0.3076)  ( 2.00    -0.2943)  ( 0.00    -0.0516)

 CYCLE   14
  SDIIS (wt  1.000):  0.0002  0.0004 -0.0002 -0.0016 -0.0057 -0.0202 -0.0298  0.0888  0.3425  0.6255
  DIIS coefficients:  0.0002  0.0004 -0.0002 -0.0016 -0.0057 -0.0202 -0.0298  0.0888  0.3425  0.6255
 SCF Error: norm([F,P])=      0.000145857522, max([F,P])=      0.000023209153
 orbitals (Q,E):
 ---------------
 A :156...166        ( 2.00    -0.3344)  ( 2.00    -0.3297)  ( 2.00    -0.3245)  ( 2.00    -0.3172)
                     ( 2.00    -0.3166)  ( 2.00    -0.3134)  ( 2.00    -0.3107)  ( 2.00    -0.3084)
                     ( 2.00    -0.3076)  ( 2.00    -0.2943)  ( 0.00    -0.0516)

 CYCLE   15
  SDIIS (wt  1.000): -0.0000  0.0001  0.0001 -0.0003 -0.0055 -0.0115  0.0046  0.0576  0.1776  0.7773
  DIIS coefficients: -0.0000  0.0001  0.0001 -0.0003 -0.0055 -0.0115  0.0046  0.0576  0.1776  0.7773
 SCF Error: norm([F,P])=      0.000030399759, max([F,P])=      0.000003417793
 orbitals (Q,E):
 ---------------
 A :156...166        ( 2.00    -0.3344)  ( 2.00    -0.3297)  ( 2.00    -0.3245)  ( 2.00    -0.3172)
                     ( 2.00    -0.3166)  ( 2.00    -0.3134)  ( 2.00    -0.3107)  ( 2.00    -0.3084)
                     ( 2.00    -0.3076)  ( 2.00    -0.2943)  ( 0.00    -0.0516)

 CYCLE   16
  SDIIS (wt  1.000):  0.0002  0.0004  0.0007 -0.0002 -0.0016 -0.0162 -0.0295 -0.0108  0.3272  0.7299
  DIIS coefficients:  0.0002  0.0004  0.0007 -0.0002 -0.0016 -0.0162 -0.0295 -0.0108  0.3272  0.7299
 SCF Error: norm([F,P])=      0.000014660003, max([F,P])=      0.000001338854
 orbitals (Q,E):
 ---------------
 A :156...166        ( 2.00    -0.3344)  ( 2.00    -0.3297)  ( 2.00    -0.3245)  ( 2.00    -0.3172)
                     ( 2.00    -0.3166)  ( 2.00    -0.3134)  ( 2.00    -0.3107)  ( 2.00    -0.3084)
                     ( 2.00    -0.3076)  ( 2.00    -0.2943)  ( 0.00    -0.0516)

 CYCLE   17
  SDIIS (wt  1.000):  0.0000  0.0001  0.0007  0.0013 -0.0034 -0.0089 -0.0211 -0.0359  0.1252  0.9419
  DIIS coefficients:  0.0000  0.0001  0.0007  0.0013 -0.0034 -0.0089 -0.0211 -0.0359  0.1252  0.9419
 SCF Error: norm([F,P])=      0.000004035129, max([F,P])=      0.000000509901
 orbitals (Q,E):
 ---------------
 A :156...166        ( 2.00    -0.3344)  ( 2.00    -0.3297)  ( 2.00    -0.3245)  ( 2.00    -0.3172)
                     ( 2.00    -0.3166)  ( 2.00    -0.3134)  ( 2.00    -0.3107)  ( 2.00    -0.3084)
                     ( 2.00    -0.3076)  ( 2.00    -0.2943)  ( 0.00    -0.0516)

 SCF CONVERGED

 CYCLE   18
1
 ***************************************************************************************************



                                                *******************
                                                *  R E S U L T S  *
                                                *******************
  
  
 Hartree-Fock exchange energy:   -160.197504153697     
 *** Using EXACT density in Focky


 *** Use of untested dispersion parameters detected in GrimmeDispersion ***


  SDIIS (wt  1.000):  0.0000  0.0003  0.0002 -0.0011 -0.0011 -0.0061 -0.0396 -0.0091  0.4393  0.6171
  DIIS coefficients:  0.0000  0.0003  0.0002 -0.0011 -0.0011 -0.0061 -0.0396 -0.0091  0.4393  0.6171
 SCF Error: norm([F,P])=      0.000002579962, max([F,P])=      0.000000314351

 Scaled ZORA Orbital Energies, per Irrep and Spin:
 =================================================
                        Occup              E (au)              E (eV)       Diff (eV) with prev. cycle
                        -----      --------------------        ------       --------------------------
 A
             156        2.000     -0.33436590774822E+00        -9.099               7.67E-07
             157        2.000     -0.32970171380336E+00        -8.972               1.60E-06
             158        2.000     -0.32452351933213E+00        -8.831               3.27E-06
             159        2.000     -0.31719838429834E+00        -8.631               3.49E-06
             160        2.000     -0.31660741845871E+00        -8.615               2.58E-06
             161        2.000     -0.31337393615225E+00        -8.527               1.85E-06
             162        2.000     -0.31066229696764E+00        -8.454               2.28E-06
             163        2.000     -0.30835771839664E+00        -8.391               2.53E-06
             164        2.000     -0.30755319550549E+00        -8.369               1.74E-06
             165        2.000     -0.29429987104080E+00        -8.008               3.53E-06
             166        0.000     -0.51611654570891E-01        -1.404
             167        0.000     -0.46104421580323E-01        -1.255
             168        0.000     -0.32740859526596E-01        -0.891
             169        0.000     -0.27875054045785E-01        -0.759
             170        0.000     -0.22440474637134E-01        -0.611
             171        0.000     -0.20487258313074E-01        -0.557
             172        0.000     -0.17456721456210E-01        -0.475
             173        0.000     -0.15569252756008E-01        -0.424
             174        0.000      0.10373629851815E-02         0.028
             175        0.000      0.20191071585512E-01         0.549
  
 HOMO :      165 A                -0.29429987104080E+00
 LUMO :      166 A                -0.51611654570891E-01
  


 All Electron Calculation, thus no Orbital Energies of the Core Orbitals are calculated


 Fit test: (difference of exact and fit density, squared integrated, result summed over spins)
         Sum-of-Fragments:                             0.00000121882663
         Orthogonalized Fragments:                     0.00351065419537
         SCF:                                          0.00416875621950



 ==========================
 Electron Density at Nuclei
 ==========================
  
 The electron density is calculated at points on a small sphere around the center of a nucleus.
 The printed electron density is the average electron density on these points.
 The radius of the sphere is the printed approximate finite nuclear radius.
 Note: ZORA-4 density is used, which includes small component density

         Atom        Nuclear Radius (Angstrom)             Electron Density (a.u.)
         ----        -------------------------             -----------------------
     1)   U                 0.0000742428                          4174082.93968
     2)   O                 0.0000345546                              313.83223
     3)   O                 0.0000345546                              313.83224
     4)   N                 0.0000333706                              205.71258
     5)   C                 0.0000320678                              126.82980
     6)   H                 0.0000181514                                0.48828
     7)   C                 0.0000320678                              126.76172
     8)   H                 0.0000181514                                0.49496
     9)   C                 0.0000320678                              126.79759
    10)   H                 0.0000181514                                0.49566
    11)   C                 0.0000320678                              126.74743
    12)   C                 0.0000320678                              126.76144
    13)   H                 0.0000181514                                0.49583
    14)   C                 0.0000320678                              126.76143
    15)   H                 0.0000181514                                0.49583
    16)   C                 0.0000320678                              126.74744
    17)   C                 0.0000320678                              126.79758
    18)   H                 0.0000181514                                0.49566
    19)   C                 0.0000320678                              126.76172
    20)   H                 0.0000181514                                0.49496
    21)   C                 0.0000320678                              126.82979
    22)   H                 0.0000181514                                0.48828
    23)   N                 0.0000333706                              205.71258
    24)   C                 0.0000320678                              126.75030
    25)   C                 0.0000320678                              126.75030
    26)   Cl                0.0000426624                             3311.23850
    27)   Cl                0.0000426624                             3311.23853
    28)   N                 0.0000333706                              205.77191
    29)   C                 0.0000320678                              126.80525
    30)   H                 0.0000181514                                0.49626
    31)   C                 0.0000320678                              126.75863
    32)   H                 0.0000181514                                0.49583
    33)   C                 0.0000320678                              126.79008
    34)   H                 0.0000181514                                0.49620
    35)   C                 0.0000320678                              126.74681
    36)   C                 0.0000320678                              126.75876
    37)   H                 0.0000181514                                0.49632
    38)   C                 0.0000320678                              126.75877
    39)   H                 0.0000181514                                0.49632
    40)   C                 0.0000320678                              126.74681
    41)   C                 0.0000320678                              126.79007
    42)   H                 0.0000181514                                0.49620
    43)   C                 0.0000320678                              126.75863
    44)   H                 0.0000181514                                0.49583
    45)   C                 0.0000320678                              126.80525
    46)   H                 0.0000181514                                0.49626
    47)   N                 0.0000333706                              205.77191
    48)   C                 0.0000320678                              126.75338
    49)   C                 0.0000320678                              126.75338



 ===========================================
 L O C A L   Q T A I M   P R O P E R T I E S
 ===========================================
  
 Module written by Juan I. Rodriguez-Hernandez,
 ESFM-Instituto Politecnico Nacional-Mexico.
 Any questions/comments to: juan@esfm.ipn.mx and/or SCM technical support.
 This subroutine was vectorized, its efficientcy is reported in
 Juan I. Rodriguez et. al., J. Comput. Chem. 34, 681 (2013).
 Additional CP properties added by L. Joubert and V. Tognetti,
 University of Rouen, France.
  
  
  THIS IS THE GEOMETRY IN THE CP SEARCH (ANGSTROM):
  
 Atom              X            Y           Z
  1 92         0.000000    0.000000    0.117214
  2  8         0.000000    1.733935    0.381399
  3  8         0.000000   -1.733935    0.381399
  4  7         1.369950    0.000000    2.420459
  5  7        -1.369950    0.000000    2.420459
  6  7         0.000000    1.352207   -2.321540
  7  7         0.000000   -1.352207   -2.321540
  8  6         2.689957    0.000000    2.427872
  9  6         3.449746    0.000000    3.602363
 10  6         2.805392    0.000000    4.808063
 11  6         1.402978    0.000000    4.835660
 12  6         0.675468    0.000000    6.060363
 13  6        -0.675468    0.000000    6.060363
 14  6        -1.402978    0.000000    4.835660
 15  6        -2.805392    0.000000    4.808063
 16  6        -3.449746    0.000000    3.602363
 17  6        -2.689957    0.000000    2.427872
 18  6        -0.718489    0.000000    3.601999
 19  6         0.718489    0.000000    3.601999
 20  6         0.000000    2.666937   -2.312203
 21  6         0.000000    3.441200   -3.477571
 22  6         0.000000    2.808361   -4.691998
 23  6         0.000000    1.406667   -4.733708
 24  6         0.000000    0.676077   -5.958124
 25  6         0.000000   -0.676077   -5.958124
 26  6         0.000000   -1.406667   -4.733708
 27  6         0.000000   -2.808361   -4.691998
 28  6         0.000000   -3.441200   -3.477571
 29  6         0.000000   -2.666937   -2.312203
 30  6         0.000000   -0.717784   -3.503763
 31  6         0.000000    0.717784   -3.503763
 32  1         3.164126    0.000000    1.452866
 33  1         4.529907    0.000000    3.533873
 34  1         3.355809    0.000000    5.742818
 35  1         1.232173    0.000000    6.990761
 36  1        -1.232173    0.000000    6.990761
 37  1        -3.355809    0.000000    5.742818
 38  1        -4.529907    0.000000    3.533873
 39  1        -3.164126    0.000000    1.452866
 40  1         0.000000    3.131546   -1.333522
 41  1         0.000000    4.521239   -3.402453
 42  1         0.000000    3.370517   -5.619820
 43  1         0.000000    1.230366   -6.890288
 44  1         0.000000   -1.230366   -6.890288
 45  1         0.000000   -3.370517   -5.619820
 46  1         0.000000   -4.521239   -3.402453
 47  1         0.000000   -3.131546   -1.333522
 48 17         2.497853    0.000000   -0.797850
 49 17        -2.497853    0.000000   -0.797850
  
 TOTAL NUMBER OF CRITICAL POINTS:          121
 NUMBER OF (3,-1) CRITICAL POINTS:          60
 NUMBER OF (3,+1) CRITICAL POINTS:          12
 NUMBER OF (3,+3) CRITICAL POINTS:           0
 NUMBER OF (3,-3) CRITICAL POINTS:          49
    Poincare-Hopf satisfied
  
 --------------------------------------------------------
CP #    1
(RANK,SIGNATURE):     (3,-3)    

CP COORDINATES:      0.000000    0.000000    0.117214

VALUES OF SOME FUNCTIONS AT CPs (a.u.):

                Rho =    0.5349709E+07
 --------------------------------------------------------
CP #    2
(RANK,SIGNATURE):     (3,-3)    

CP COORDINATES:      0.000000    1.733935    0.381399

VALUES OF SOME FUNCTIONS AT CPs (a.u.):

                Rho =    0.3143635E+03
 --------------------------------------------------------
CP #    3
(RANK,SIGNATURE):     (3,-3)    

CP COORDINATES:      0.000000   -1.733935    0.381399

VALUES OF SOME FUNCTIONS AT CPs (a.u.):

                Rho =    0.3143636E+03
 --------------------------------------------------------
CP #    4
(RANK,SIGNATURE):     (3,-3)    

CP COORDINATES:      1.369950    0.000000    2.420459

VALUES OF SOME FUNCTIONS AT CPs (a.u.):

                Rho =    0.2059927E+03
 --------------------------------------------------------
CP #    5
(RANK,SIGNATURE):     (3,-3)    

CP COORDINATES:     -1.369950    0.000000    2.420459

VALUES OF SOME FUNCTIONS AT CPs (a.u.):

                Rho =    0.2059927E+03
 --------------------------------------------------------
CP #    6
(RANK,SIGNATURE):     (3,-3)    

CP COORDINATES:      0.000000    1.352207   -2.321540

VALUES OF SOME FUNCTIONS AT CPs (a.u.):

                Rho =    0.2060521E+03
 --------------------------------------------------------
CP #    7
(RANK,SIGNATURE):     (3,-3)    

CP COORDINATES:      0.000000   -1.352207   -2.321540

VALUES OF SOME FUNCTIONS AT CPs (a.u.):

                Rho =    0.2060521E+03
 --------------------------------------------------------
CP #    8
(RANK,SIGNATURE):     (3,-3)    

CP COORDINATES:      2.689957    0.000000    2.427872

VALUES OF SOME FUNCTIONS AT CPs (a.u.):

                Rho =    0.1269648E+03
 --------------------------------------------------------
CP #    9
(RANK,SIGNATURE):     (3,-3)    

CP COORDINATES:      3.449746    0.000000    3.602363

VALUES OF SOME FUNCTIONS AT CPs (a.u.):

                Rho =    0.1268967E+03
 --------------------------------------------------------
CP #   10
(RANK,SIGNATURE):     (3,-3)    

CP COORDINATES:      2.805392    0.000000    4.808063

VALUES OF SOME FUNCTIONS AT CPs (a.u.):

                Rho =    0.1269326E+03
 --------------------------------------------------------
CP #   11
(RANK,SIGNATURE):     (3,-3)    

CP COORDINATES:      1.402978    0.000000    4.835660

VALUES OF SOME FUNCTIONS AT CPs (a.u.):

                Rho =    0.1268824E+03
 --------------------------------------------------------
CP #   12
(RANK,SIGNATURE):     (3,-3)    

CP COORDINATES:      0.675468    0.000000    6.060363

VALUES OF SOME FUNCTIONS AT CPs (a.u.):

                Rho =    0.1268964E+03
 --------------------------------------------------------
CP #   13
(RANK,SIGNATURE):     (3,-3)    

CP COORDINATES:     -0.675468    0.000000    6.060363

VALUES OF SOME FUNCTIONS AT CPs (a.u.):

                Rho =    0.1268964E+03
 --------------------------------------------------------
CP #   14
(RANK,SIGNATURE):     (3,-3)    

CP COORDINATES:     -1.402978    0.000000    4.835660

VALUES OF SOME FUNCTIONS AT CPs (a.u.):

                Rho =    0.1268824E+03
 --------------------------------------------------------
CP #   15
(RANK,SIGNATURE):     (3,-3)    

CP COORDINATES:     -2.805392    0.000000    4.808063

VALUES OF SOME FUNCTIONS AT CPs (a.u.):

                Rho =    0.1269326E+03
 --------------------------------------------------------
CP #   16
(RANK,SIGNATURE):     (3,-3)    

CP COORDINATES:     -3.449746    0.000000    3.602363

VALUES OF SOME FUNCTIONS AT CPs (a.u.):

                Rho =    0.1268967E+03
 --------------------------------------------------------
CP #   17
(RANK,SIGNATURE):     (3,-3)    

CP COORDINATES:     -2.689957    0.000000    2.427872

VALUES OF SOME FUNCTIONS AT CPs (a.u.):

                Rho =    0.1269648E+03
 --------------------------------------------------------
CP #   18
(RANK,SIGNATURE):     (3,-3)    

CP COORDINATES:     -0.718489    0.000000    3.601999

VALUES OF SOME FUNCTIONS AT CPs (a.u.):

                Rho =    0.1268853E+03
 --------------------------------------------------------
CP #   19
(RANK,SIGNATURE):     (3,-3)    

CP COORDINATES:      0.718489    0.000000    3.601999

VALUES OF SOME FUNCTIONS AT CPs (a.u.):

                Rho =    0.1268853E+03
 --------------------------------------------------------
CP #   20
(RANK,SIGNATURE):     (3,-3)    

CP COORDINATES:      0.000000    2.666937   -2.312203

VALUES OF SOME FUNCTIONS AT CPs (a.u.):

                Rho =    0.1269403E+03
 --------------------------------------------------------
CP #   21
(RANK,SIGNATURE):     (3,-3)    

CP COORDINATES:      0.000000    3.441200   -3.477571

VALUES OF SOME FUNCTIONS AT CPs (a.u.):

                Rho =    0.1268936E+03
 --------------------------------------------------------
CP #   22
(RANK,SIGNATURE):     (3,-3)    

CP COORDINATES:      0.000000    2.808361   -4.691998

VALUES OF SOME FUNCTIONS AT CPs (a.u.):

                Rho =    0.1269250E+03
 --------------------------------------------------------
CP #   23
(RANK,SIGNATURE):     (3,-3)    

CP COORDINATES:      0.000000    1.406667   -4.733708

VALUES OF SOME FUNCTIONS AT CPs (a.u.):

                Rho =    0.1268818E+03
 --------------------------------------------------------
CP #   24
[...]
                                    1.03%     2 S               3.709  0.00    41 H
                                    1.03%     2 S               3.709  0.00    46 H
       3.860  0.00   202 A         15.23%     4 D:yz           -0.878  0.20     1 U
                                   13.42%     2 F:y            -1.528  0.43     1 U
                                    9.46%     2 F:z2y          -1.528  0.43     1 U
                                    9.23%     1 P:y           -10.628  1.33     2 O
                                    9.23%     1 P:y           -10.628  1.33     3 O
                                    6.04%     1 P:z           -10.628  1.33     3 O
                                    6.04%     1 P:z           -10.628  1.33     2 O
                                    5.92%     5 P:y           -27.045  2.00     1 U
                                    3.74%     1 S              -6.758  1.00    44 H
                                    3.74%     1 S              -6.758  1.00    43 H
                                    3.07%     1 P:y            -4.786  0.67     9 C
                                    3.07%     1 P:y            -4.786  0.67    16 C
                                    2.66%     1 P:y            -4.786  0.67    11 C
                                    2.66%     1 P:y            -4.786  0.67    14 C
                                    2.38%     1 P:y            -4.786  0.67    10 C
                                    2.38%     1 P:y            -4.786  0.67    15 C
                                   -1.73%     2 P:z             6.278  0.00    25 C
                                   -1.73%     2 P:z             6.278  0.00    24 C
                                    1.68%     1 S              -6.758  1.00    45 H
                                    1.68%     1 S              -6.758  1.00    42 H
                                    1.56%     1 P:y            -4.786  0.67     8 C
                                    1.56%     1 P:y            -4.786  0.67    17 C
                                   -1.48%     2 P:z            11.691  0.00     3 O
                                   -1.48%     2 P:z            11.691  0.00     2 O
                                   -1.46%     2 P:y             6.278  0.00    10 C
                                   -1.46%     2 P:y             6.278  0.00    15 C
                                   -1.20%     7 P:y            11.979  0.00     1 U
                                   -1.10%     2 P:y             6.278  0.00     8 C
                                   -1.10%     2 P:y             6.278  0.00    17 C
                                    1.04%     2 S               3.709  0.00    45 H
                                    1.04%     2 S               3.709  0.00    42 H
       3.966  0.00   203 A         16.10%     1 S              -6.758  1.00    35 H
                                   16.10%     1 S              -6.758  1.00    36 H
                                  -14.48%     2 P:x             6.278  0.00     9 C
                                  -14.48%     2 P:x             6.278  0.00    16 C
                                   12.09%     1 S              -6.758  1.00    33 H
                                   12.08%     1 S              -6.758  1.00    38 H
                                   10.21%     2 P:x             6.278  0.00    18 C
                                   10.21%     2 P:x             6.278  0.00    19 C
                                   10.02%     1 S              -6.758  1.00    34 H
                                   10.02%     1 S              -6.758  1.00    37 H
                                    9.09%     2 S               3.709  0.00    32 H
                                    9.08%     2 S               3.709  0.00    39 H
                                    8.37%     6 P:x             0.556  0.00     1 U
                                    7.10%     2 S               3.709  0.00    34 H
                                    7.10%     2 S               3.709  0.00    37 H
                                   -5.81%     2 P:z             6.278  0.00    12 C
                                   -5.81%     2 P:z             6.278  0.00    13 C
                                    5.46%     1 P:x            -4.786  0.67    18 C
                                    5.46%     1 P:x            -4.786  0.67    19 C
                                   -4.98%     2 S               3.709  0.00    33 H
                                   -4.98%     2 S               3.709  0.00    38 H
                                   -4.66%     2 P:z             6.278  0.00    11 C
                                   -4.66%     2 P:z             6.278  0.00    14 C
                                    4.57%     4 D:xz           -0.878  0.20     1 U
                                    4.49%     1 S              -6.758  1.00    32 H
                                    4.49%     1 S              -6.758  1.00    39 H
                                   -3.14%     4 S               7.338  0.00    48 Cl
                                   -3.14%     4 S               7.338  0.00    49 Cl
                                   -3.07%     1 P:z            -4.786  0.67    11 C
                                   -3.07%     1 P:z            -4.786  0.67    14 C
                                    2.72%     1 P:z            -4.786  0.67    10 C
                                    2.72%     1 P:z            -4.786  0.67    15 C
                                    2.05%     3 S              44.335  0.00    35 H
                                    2.05%     3 S              44.335  0.00    36 H
                                    1.86%     3 S              44.335  0.00    33 H
                                    1.86%     3 S              44.335  0.00    38 H
                                    1.76%     2 P:z             6.278  0.00    15 C
                                    1.76%     2 P:z             6.278  0.00    10 C
                                   -1.76%     2 S             -17.518  2.00     9 C
                                   -1.76%     2 S             -17.518  2.00    16 C
                                    1.71%     5 D:xz            2.389  0.00     1 U
                                    1.50%     2 P:x             6.278  0.00    29 C
                                    1.50%     2 P:x             6.278  0.00    20 C
                                   -1.42%     2 P:x             9.732  0.00     5 N
                                   -1.42%     2 P:x             9.732  0.00     4 N
                                   -1.42%     3 S              12.284  0.00    11 C
                                   -1.42%     3 S              12.284  0.00    14 C
                                   -1.24%     2 P:z             9.732  0.00     4 N
                                   -1.24%     2 P:z             9.732  0.00     5 N
                                   -1.18%     1 P:x            -4.786  0.67     9 C
                                   -1.18%     1 P:x            -4.786  0.67    16 C
                                   -1.15%     2 P:x             6.278  0.00    13 C
                                   -1.15%     2 P:x             6.278  0.00    12 C
                                    1.06%     1 P:x            -4.786  0.67    12 C
                                    1.06%     1 P:x            -4.786  0.67    13 C
                                   -1.01%     2 P:x             9.732  0.00     7 N
                                   -1.01%     2 P:x             9.732  0.00     6 N
       3.977  0.00   204 A          9.36%     1 P:y            -4.786  0.67     8 C
                                    9.36%     1 P:y            -4.786  0.67    17 C
                                    9.10%     1 P:y            -4.786  0.67    10 C
                                    9.10%     1 P:y            -4.786  0.67    15 C
                                    8.50%     1 P:y            -4.786  0.67     9 C
                                    8.50%     1 P:y            -4.786  0.67    16 C
                                   -6.53%     2 P:y             6.278  0.00    11 C
                                   -6.53%     2 P:y             6.278  0.00    14 C
                                    5.77%     1 P:y            -4.786  0.67    11 C
                                    5.77%     1 P:y            -4.786  0.67    14 C
                                    5.62%     2 P:y             6.278  0.00    12 C
                                    5.62%     2 P:y             6.278  0.00    13 C
                                    4.63%     1 P:y            -7.540  1.00     4 N
                                    4.63%     1 P:y            -7.540  1.00     5 N
                                    4.37%     1 S              -6.758  1.00    44 H
                                    4.36%     1 S              -6.758  1.00    43 H
                                   -4.23%     2 P:y             6.278  0.00     9 C
                                   -4.23%     2 P:y             6.278  0.00    16 C
                                    3.87%     1 P:y            -4.786  0.67    19 C
                                    3.87%     1 P:y            -4.786  0.67    18 C
                                    3.52%     5 D:yz            2.389  0.00     1 U
                                    2.87%     1 S              -6.758  1.00    45 H
                                    2.87%     1 S              -6.758  1.00    42 H
                                    2.30%     2 F:y            -1.528  0.43     1 U
                                   -1.89%     2 P:y             6.278  0.00     8 C
                                   -1.89%     2 P:y             6.278  0.00    17 C
                                    1.82%     2 F:z2y          -1.528  0.43     1 U
                                    1.71%     2 P:y             6.278  0.00    10 C
                                    1.71%     2 P:y             6.278  0.00    15 C
                                   -1.57%     2 P:z             6.278  0.00    25 C
                                   -1.56%     2 P:z             6.278  0.00    24 C
                                    1.45%     2 S               3.709  0.00    43 H
                                    1.45%     2 S               3.709  0.00    44 H
                                   -1.44%     2 P:y             9.732  0.00     4 N
                                   -1.44%     2 P:y             9.732  0.00     5 N
                                    1.37%     1 P:y           -10.628  1.33     2 O
                                    1.37%     1 P:y           -10.628  1.33     3 O
                                   -1.15%     2 P:y             6.278  0.00    24 C
                                   -1.15%     2 P:y             6.278  0.00    25 C
                                   -1.13%     2 P:y             6.278  0.00    27 C
                                   -1.13%     2 P:y             6.278  0.00    22 C
                                    1.02%     1 P:y            -4.786  0.67    12 C
                                    1.02%     1 P:y            -4.786  0.67    13 C
                                   -1.01%     2 P:z             6.278  0.00    27 C
                                   -1.01%     2 P:z             6.278  0.00    22 C
       3.990  0.00   205 A         16.15%     1 S              -6.758  1.00    39 H
                                   16.15%     1 S              -6.758  1.00    32 H
                                   13.39%     2 S               3.709  0.00    39 H
                                   13.39%     2 S               3.709  0.00    32 H
                                   -9.77%     2 P:x             6.278  0.00    16 C
                                   -9.77%     2 P:x             6.278  0.00     9 C
                                    8.71%     1 S              -6.758  1.00    47 H
                                    8.71%     1 S              -6.758  1.00    40 H
                                    7.96%     2 S               3.709  0.00    47 H
                                    7.96%     2 S               3.709  0.00    40 H
                                   -7.75%     2 P:y             6.278  0.00    21 C
                                   -7.75%     2 P:y             6.278  0.00    28 C
                                    7.04%     5 D:x2-y2         2.389  0.00     1 U
                                   -6.58%     2 P:z             6.278  0.00    17 C
                                   -6.58%     2 P:z             6.278  0.00     8 C
                                    5.90%     1 S              -6.758  1.00    38 H
                                    5.90%     1 S              -6.758  1.00    33 H
                                    5.75%     2 P:x             6.278  0.00    15 C
                                    5.75%     2 P:x             6.278  0.00    10 C
                                    5.74%     2 P:y             6.278  0.00    27 C
                                    5.74%     2 P:y             6.278  0.00    22 C
                                    4.94%     1 S              -6.758  1.00    41 H
                                    4.94%     1 S              -6.758  1.00    46 H
                                    3.66%     5 D:z2            2.389  0.00     1 U
                                    3.62%     1 P:x            -4.786  0.67    15 C
                                    3.62%     1 P:x            -4.786  0.67    10 C
                                   -3.10%     3 S              12.284  0.00    26 C
                                   -3.10%     3 S              12.284  0.00    23 C
                                   -3.05%     3 S              12.284  0.00    14 C
                                   -3.05%     3 S              12.284  0.00    11 C
                                    2.49%     1 P:y            -4.786  0.67    27 C
                                    2.49%     1 P:y            -4.786  0.67    22 C
                                    2.24%     2 S               3.709  0.00    42 H
                                    2.24%     2 S               3.709  0.00    45 H
                                    1.84%     1 S              -6.758  1.00    37 H
                                    1.84%     1 S              -6.758  1.00    34 H
                                   -1.78%     1 P:x            -4.786  0.67    16 C
                                   -1.78%     1 P:x            -4.786  0.67     9 C
                                   -1.77%     2 S               3.709  0.00    46 H
                                   -1.77%     2 S               3.709  0.00    41 H
                                   -1.74%     2 P:z             6.278  0.00    20 C
                                   -1.74%     2 P:z             6.278  0.00    29 C
                                   -1.45%     1 P:y            -4.786  0.67    28 C
                                   -1.45%     1 P:y            -4.786  0.67    21 C
                                    1.34%     3 S              44.335  0.00    38 H
                                    1.33%     3 S              44.335  0.00    33 H
                                    1.32%     1 S              -6.758  1.00    42 H
                                    1.32%     1 S              -6.758  1.00    45 H
                                   -1.16%     3 S              12.284  0.00    17 C
                                   -1.16%     3 S              12.284  0.00     8 C
                                   -1.12%     2 P:z             6.278  0.00     9 C
                                   -1.12%     2 P:z             6.278  0.00    16 C
                                   -1.04%     2 P:z             9.732  0.00     7 N
                                   -1.04%     2 P:z             9.732  0.00     6 N



 =======================================================================
 Electrostatic potential at the Nuclei due to electrons and other nuclei
 =======================================================================
  
         Atom                  Potential
         ----                  ---------
     1)   U                 803.34648517
     2)   O                  22.42246762
     3)   O                  22.42246775
     4)   N                  18.37612065
     5)   C                  14.72727842
     6)   H                   1.08821377
     7)   C                  14.75067579
     8)   H                   1.06973715
     9)   C                  14.73664605
    10)   H                   1.06012600
    11)   C                  14.73374126
    12)   C                  14.74610611
    13)   H                   1.06642493
    14)   C                  14.74610625
    15)   H                   1.06642504
    16)   C                  14.73374134
    17)   C                  14.73664616
    18)   H                   1.06012614
    19)   C                  14.75067617
    20)   H                   1.06973742
    21)   C                  14.72727863
    22)   H                   1.08821389
    23)   N                  18.37612085
    24)   C                  14.70699890
    25)   C                  14.70699897
    26)   Cl                 64.96817014
    27)   Cl                 64.96817010
    28)   N                  18.40456834
    29)   C                  14.74383457
    30)   H                   1.10246608
    31)   C                  14.76756751
    32)   H                   1.08522669
    33)   C                  14.75553465
    34)   H                   1.07801364
    35)   C                  14.75412911
    36)   C                  14.76404189
    37)   H                   1.08418259
    38)   C                  14.76404210
    39)   H                   1.08418267
    40)   C                  14.75412908
    41)   C                  14.75553473
    42)   H                   1.07801376
    43)   C                  14.76756782
    44)   H                   1.08522697
    45)   C                  14.74383470
    46)   H                   1.10246623
    47)   N                  18.40456844
    48)   C                  14.73200494
    49)   C                  14.73200501
 Mulliken charges used for AMS results%charges...


    =====================
     CALCULATION RESULTS
    =====================

Energy (hartree)           -17.81840179


--------------
Atomic charges
--------------
  Index   Atom    Charge
      1      U    2.0312
      2      O   -0.6626
      3      O   -0.6626
      4      N   -0.4738
      5      C    0.4413
      6      H   -0.1373
      7      C    0.1633
      8      H   -0.1898
      9      C    0.2610
     10      H   -0.1934
     11      C   -0.0017
     12      C    0.2146
     13      H   -0.1976
     14      C    0.2146
     15      H   -0.1976
     16      C   -0.0017
     17      C    0.2610
     18      H   -0.1934
     19      C    0.1633
     20      H   -0.1898
     21      C    0.4413
     22      H   -0.1373
     23      N   -0.4738
     24      C    0.1821
     25      C    0.1821
     26     Cl   -0.5036
     27     Cl   -0.5036
     28      N   -0.4104
     29      C    0.4412
     30      H   -0.1582
     31      C    0.1630
     32      H   -0.1972
     33      C    0.2564
     34      H   -0.2003
     35      C   -0.0025
     36      C    0.2112
     37      H   -0.2031
     38      C    0.2112
     39      H   -0.2031
     40      C   -0.0024
     41      C    0.2564
     42      H   -0.2003
     43      C    0.1630
     44      H   -0.1972
     45      C    0.4412
     46      H   -0.1582
     47      N   -0.4104
     48      C    0.1817
     49      C    0.1816


Dipole moment vector    (Debye):     0.00001536    0.00001526    4.24884190
              magnitude (Debye):     4.24884190


AMS application finished. Exiting.
NORMAL TERMINATION
     Total cpu time:    2730.47
  Total system time:      65.20
 Total elapsed time:    2797.94
