

 Parallel Execution: Process Information
 ==============================================================================
 Rank   Node Name                              NodeID   MyNodeRank  NodeMaster
    0   u-5-2.local                               0          0          0
    1   u-5-2.local                               0          1         -1
    2   u-5-2.local                               0          2         -1
    3   u-5-2.local                               0          3         -1
    4   u-5-2.local                               0          4         -1
    5   u-5-2.local                               0          5         -1
    6   u-5-2.local                               0          6         -1
    7   u-5-2.local                               0          7         -1
    8   u-5-2.local                               1          0          1
    9   u-5-2.local                               1          1         -1
   10   u-5-2.local                               1          2         -1
   11   u-5-2.local                               1          3         -1
   12   u-5-2.local                               1          4         -1
   13   u-5-2.local                               1          5         -1
   14   u-5-2.local                               1          6         -1
   15   u-5-2.local                               1          7         -1
 ==============================================================================


May use up to 15580MB of RAM as shared memory on node 0
May use up to 15625MB of RAM as shared memory on node 1

 *******************************************************************************
 *                                                                             *
 *  --------------------------------                                           *
 *   Amsterdam Modeling Suite (AMS)              2021.106                      *
 *  --------------------------------                                           *
 *                                               r99350 2021-12-03             *
 *                                                                             *
 *                                                                             *
 *                              =================                              *
 *                              |               |                              *
 *                              |     A M S     |                              *
 *                              |               |                              *
 *                              =================                              *
 *                                                                             *
 *                                                                             *
 *   Online information and documentation:  https://www.scm.com/support/       *
 *   E-mail:  support@scm.com   info@scm.com                                   *
 *                                                                             *
 *   Scientific publications using AMS results must be properly referenced     *
 *   See the User Manuals (or the web site) for recommended citations          *
 *   The terms and conditions of the End User License Agreement apply to       *
 *   the use of AMS, https://www.scm.com/license-terms/                        *
 *                                                                             *
 **********************  x86_64_linux_intel / intelmpi  ************************
 
 Licensed to: Dr. Val?rie Vallet / Laboratoire PhLAM UMR 8523 / Villeneuve d'Ascq Cedex / FRANCE 2023-01-20 17:43:01
 SCM User ID: u10325
  
 AMS 2021.106  RunTime: Jan25-2023 12:44:32  ShM Nodes: 2  Procs: 16

 AMS jobname: abs-uo2_2cl_2phen.tddft-camb3lyp-COSMO.SR
 AMS jobid  : 556137151

 Start   directory: /home/vallet/Bent-Uranyl/uo2_2cl_2phen/uo2_2cl_2phen/bent/geom-pbe0-d3-gp/ams-absorption-emission/fullkernel/
 Results directory: /home/vallet/Bent-Uranyl/uo2_2cl_2phen/uo2_2cl_2phen/bent/geom-pbe0-d3-gp/ams-absorption-emission/fullkernel/abs-uo2_2cl_2phen.tddft-camb3lyp-COSMO.SR.results/
 Scratch directory: /state/partition1/vallet/923106.phlam-s-sakura/amstmp_abs-uo2_2cl_2phen.tddft-camb3lyp-COSMO.SR_kid0.556137151/


 Communication costs MPI_COMM_WORLD:      2.420 usec per message,   0.0092 usec per 8-byte item
 Communication costs for intra-node:      1.288 usec per message,   0.0045 usec per 8-byte item

 RNG seed: 1739686270 1871843350 1233437645 1809216487 1127959588 -945340098 287915703 -1329147348



                     *************************************************************************
                     *  ADF 2021.106  RunTime: Jan25-2023 12:44:32  ShM Nodes: 2  Procs: 16  *
                     *************************************************************************
  
       ****************************
       * SINGLE POINT CALCULATION *
       ****************************
 
--------
Geometry
--------
Formula: C24H16Cl2N4O2U
Atoms
  Index Symbol   x (angstrom)   y (angstrom)   z (angstrom)
      1      U     0.00000000     0.00000000     0.11721400       adf.R=1.86
      2      O     0.00000000     1.73393500     0.38139900       adf.R=1.52
      3      O     0.00000000    -1.73393500     0.38139900       adf.R=1.52
      4      N     1.36995000     0.00000000     2.42045900       adf.R=1.55
      5      C     2.68995700     0.00000000     2.42787200       adf.R=1.70
      6      H     3.16412600     0.00000000     1.45286600       adf.R=1.20
      7      C     3.44974600     0.00000000     3.60236300       adf.R=1.70
      8      H     4.52990700     0.00000000     3.53387300       adf.R=1.20
      9      C     2.80539200     0.00000000     4.80806300       adf.R=1.70
     10      H     3.35580900     0.00000000     5.74281800       adf.R=1.20
     11      C     1.40297800     0.00000000     4.83566000       adf.R=1.70
     12      C     0.67546800     0.00000000     6.06036300       adf.R=1.70
     13      H     1.23217300     0.00000000     6.99076100       adf.R=1.20
     14      C    -0.67546800     0.00000000     6.06036300       adf.R=1.70
     15      H    -1.23217300     0.00000000     6.99076100       adf.R=1.20
     16      C    -1.40297800     0.00000000     4.83566000       adf.R=1.70
     17      C    -2.80539200     0.00000000     4.80806300       adf.R=1.70
     18      H    -3.35580900     0.00000000     5.74281800       adf.R=1.20
     19      C    -3.44974600     0.00000000     3.60236300       adf.R=1.70
     20      H    -4.52990700     0.00000000     3.53387300       adf.R=1.20
     21      C    -2.68995700     0.00000000     2.42787200       adf.R=1.70
     22      H    -3.16412600     0.00000000     1.45286600       adf.R=1.20
     23      N    -1.36995000     0.00000000     2.42045900       adf.R=1.55
     24      C    -0.71848900     0.00000000     3.60199900       adf.R=1.70
     25      C     0.71848900     0.00000000     3.60199900       adf.R=1.70
     26     Cl     2.49785300     0.00000000    -0.79785000       adf.R=1.75
     27     Cl    -2.49785300     0.00000000    -0.79785000       adf.R=1.75
     28      N     0.00000000     1.35220700    -2.32154000       adf.R=1.55
     29      C     0.00000000     2.66693700    -2.31220300       adf.R=1.70
     30      H     0.00000000     3.13154600    -1.33352200       adf.R=1.20
     31      C     0.00000000     3.44120000    -3.47757100       adf.R=1.70
     32      H     0.00000000     4.52123900    -3.40245300       adf.R=1.20
     33      C     0.00000000     2.80836100    -4.69199800       adf.R=1.70
     34      H     0.00000000     3.37051700    -5.61982000       adf.R=1.20
     35      C     0.00000000     1.40666700    -4.73370800       adf.R=1.70
     36      C     0.00000000     0.67607700    -5.95812400       adf.R=1.70
     37      H     0.00000000     1.23036600    -6.89028800       adf.R=1.20
     38      C     0.00000000    -0.67607700    -5.95812400       adf.R=1.70
     39      H     0.00000000    -1.23036600    -6.89028800       adf.R=1.20
     40      C     0.00000000    -1.40666700    -4.73370800       adf.R=1.70
     41      C     0.00000000    -2.80836100    -4.69199800       adf.R=1.70
     42      H     0.00000000    -3.37051700    -5.61982000       adf.R=1.20
     43      C     0.00000000    -3.44120000    -3.47757100       adf.R=1.70
     44      H     0.00000000    -4.52123900    -3.40245300       adf.R=1.20
     45      C     0.00000000    -2.66693700    -2.31220300       adf.R=1.70
     46      H     0.00000000    -3.13154600    -1.33352200       adf.R=1.20
     47      N     0.00000000    -1.35220700    -2.32154000       adf.R=1.55
     48      C     0.00000000    -0.71778400    -3.50376300       adf.R=1.70
     49      C     0.00000000     0.71778400    -3.50376300       adf.R=1.70
 
Total System Charge             0.00000
Bonding info available!
 
 
----------------
ADF Engine Input
----------------
 
 Basis
 Type TZ2P
 Core None
 End
 AllPoints Yes
 XC
 libxc CAM-B3LYP
 End
 Symmetry NOSYM
 Solvation
 Surf Delley
 Solv name=Water cav0=0.0 cav1=0.0067639
 Charged method=CONJ
 C-Mat POT
 SCF VAR ALL
 CSMRSP
 End
 Excitations
 Lowest 16
 NTO Yes
 Davidson
 End
 FullKernel Yes
 End
 

 Title: *** (NO TITLE) ***

 *** adf ***



 ===========================
 A T T A C H E D   F I L E S
 ===========================
  



 ===============================
 M O D E L   P A R A M E T E R S
 ===============================
  
 Range separated functional parameters:
 RANGESEP OMEGA=    0.330000 ALPHA=    0.190000 BETA=    0.460000 ERF-LONGRANGE 
                                                                                
   
 DENSITY FUNCTIONAL POTENTIAL (scf)

   *** Range Separated Functional ***

 Regions:
   LibXC version: 5. 1. 2
   Exchange-correlation  T T T T F F F T T F F F F F F F F F F F F
   HF parameter =   0.65000000
   LIBXC GAMMA=    0.330000 ALPHA=    0.650000 BETA=   -0.460000
   CAM version of B3LYP (Hybrid GGA)
[1] T. Yanai, D. P. Tew, and N. C. Handy, Chem. Phys. Lett. 393, 51 (2004)

 SPIN  (restricted / unrestr.)
    Molecule:                          Restricted                               
    Fragments:                         Restricted                               

 OTHER ASPECTS
    Relativistic Corrections:          scalar (ZORA,MAPA)                       

    Nuclear Charge Density Model:      Point Charge Nuclei                      
    Core Treatment:                    Frozen Orbital(s)                        

    Hyperfine or Zeeman Interaction:   ---                                      

 SOLVATION
-------------------------------------------

  The Delley construction of COSMO surface surface is calculated

       Division Level for Surface Triangles (NDIV)                  3
       Final Division Level for Triangles (NFDIV)                   1
       Radius of the Solvent (RSOL)                           1.93000 angstr
  Dielectric Constant (EPSL)                                 78.39000

       COSMO equation is solved iteratively-               conjugate-gradient

       Maximun of Iterations for Charges (NCIX)                  1000
       Criterion for Charge convergence (CCNV)                1.0E-08

  COSMO charges included variationally in SCF

       COSMO included at every SCF cycle

  Geometry-dependent empirical factor                         0.00000

  C-Matrix calculated in cspmtx

  In cspmtx, C-Matrix calculated using fitted potential

-------------------------------------------



 Fragment File(s)
 ----------------
 U:
         file : /home/vallet/Bent-Uranyl/uo2_2cl_2phen/uo2_2cl_2phen/bent/geom-pbe0-d3-gp/ams-absorption-emission/fullkernel/abs-uo2_2cl_2phen.tddft-camb3lyp-COSMO.SR.results/t21.62EFEEDA.U
         jobid: 0
         title: Uranium (TZ2P, all electron)
 O:
         file : /home/vallet/Bent-Uranyl/uo2_2cl_2phen/uo2_2cl_2phen/bent/geom-pbe0-d3-gp/ams-absorption-emission/fullkernel/abs-uo2_2cl_2phen.tddft-camb3lyp-COSMO.SR.results/t21.145967BA.O
         jobid: 0
         title: Oxygen (TZ2P)
 N:
         file : /home/vallet/Bent-Uranyl/uo2_2cl_2phen/uo2_2cl_2phen/bent/geom-pbe0-d3-gp/ams-absorption-emission/fullkernel/abs-uo2_2cl_2phen.tddft-camb3lyp-COSMO.SR.results/t21.14111EB5.N
         jobid: 0
         title: Nitrogen (TZ2P)
 C:
         file : /home/vallet/Bent-Uranyl/uo2_2cl_2phen/uo2_2cl_2phen/bent/geom-pbe0-d3-gp/ams-absorption-emission/fullkernel/abs-uo2_2cl_2phen.tddft-camb3lyp-COSMO.SR.results/t21.4B996FBB.C
         jobid: 0
         title: Carbon (TZ2P)
 H:
         file : /home/vallet/Bent-Uranyl/uo2_2cl_2phen/uo2_2cl_2phen/bent/geom-pbe0-d3-gp/ams-absorption-emission/fullkernel/abs-uo2_2cl_2phen.tddft-camb3lyp-COSMO.SR.results/t21.164EB0E5.H
         jobid: 0
         title: Hydrogen (TZ2P)
 Cl:
         file : /home/vallet/Bent-Uranyl/uo2_2cl_2phen/uo2_2cl_2phen/bent/geom-pbe0-d3-gp/ams-absorption-emission/fullkernel/abs-uo2_2cl_2phen.tddft-camb3lyp-COSMO.SR.results/t21.4C5367B7.Cl
         jobid: 0
         title: Chlorine (TZ2P)



 ===============
 G E O M E T R Y  ***  3D  Molecule  ***
 ===============
  

 ATOMS
 =====                            X Y Z                    CHARGE                     RADIUS
                                (Angstrom)             Nucl     +Core       At.Mass (Angstrom)
                       --------------------------    ----------------       ------- ----------
    1  U               0.0000    0.0000    0.1172     92.00     92.00      238.0508    1.8600
    2  O               0.0000    1.7339    0.3814      8.00      8.00       15.9949    1.5200
    3  O               0.0000   -1.7339    0.3814      8.00      8.00       15.9949    1.5200
    4  N               1.3700    0.0000    2.4205      7.00      7.00       14.0031    1.5500
    5  C               2.6900    0.0000    2.4279      6.00      6.00       12.0000    1.7000
    6  H               3.1641    0.0000    1.4529      1.00      1.00        1.0078    1.2000
    7  C               3.4497    0.0000    3.6024      6.00      6.00       12.0000    1.7000
    8  H               4.5299    0.0000    3.5339      1.00      1.00        1.0078    1.2000
    9  C               2.8054    0.0000    4.8081      6.00      6.00       12.0000    1.7000
   10  H               3.3558    0.0000    5.7428      1.00      1.00        1.0078    1.2000
   11  C               1.4030    0.0000    4.8357      6.00      6.00       12.0000    1.7000
   12  C               0.6755    0.0000    6.0604      6.00      6.00       12.0000    1.7000
   13  H               1.2322    0.0000    6.9908      1.00      1.00        1.0078    1.2000
   14  C              -0.6755    0.0000    6.0604      6.00      6.00       12.0000    1.7000
   15  H              -1.2322    0.0000    6.9908      1.00      1.00        1.0078    1.2000
   16  C              -1.4030    0.0000    4.8357      6.00      6.00       12.0000    1.7000
   17  C              -2.8054    0.0000    4.8081      6.00      6.00       12.0000    1.7000
   18  H              -3.3558    0.0000    5.7428      1.00      1.00        1.0078    1.2000
   19  C              -3.4497    0.0000    3.6024      6.00      6.00       12.0000    1.7000
   20  H              -4.5299    0.0000    3.5339      1.00      1.00        1.0078    1.2000
   21  C              -2.6900    0.0000    2.4279      6.00      6.00       12.0000    1.7000
   22  H              -3.1641    0.0000    1.4529      1.00      1.00        1.0078    1.2000
   23  N              -1.3700    0.0000    2.4205      7.00      7.00       14.0031    1.5500
   24  C              -0.7185    0.0000    3.6020      6.00      6.00       12.0000    1.7000
   25  C               0.7185    0.0000    3.6020      6.00      6.00       12.0000    1.7000
   26  Cl              2.4979    0.0000   -0.7978     17.00     17.00       34.9689    1.7500
   27  Cl             -2.4979    0.0000   -0.7978     17.00     17.00       34.9689    1.7500
   28  N               0.0000    1.3522   -2.3215      7.00      7.00       14.0031    1.5500
   29  C               0.0000    2.6669   -2.3122      6.00      6.00       12.0000    1.7000
   30  H               0.0000    3.1315   -1.3335      1.00      1.00        1.0078    1.2000
   31  C               0.0000    3.4412   -3.4776      6.00      6.00       12.0000    1.7000
   32  H               0.0000    4.5212   -3.4025      1.00      1.00        1.0078    1.2000
   33  C               0.0000    2.8084   -4.6920      6.00      6.00       12.0000    1.7000
   34  H               0.0000    3.3705   -5.6198      1.00      1.00        1.0078    1.2000
   35  C               0.0000    1.4067   -4.7337      6.00      6.00       12.0000    1.7000
   36  C               0.0000    0.6761   -5.9581      6.00      6.00       12.0000    1.7000
   37  H               0.0000    1.2304   -6.8903      1.00      1.00        1.0078    1.2000
   38  C               0.0000   -0.6761   -5.9581      6.00      6.00       12.0000    1.7000
   39  H               0.0000   -1.2304   -6.8903      1.00      1.00        1.0078    1.2000
   40  C               0.0000   -1.4067   -4.7337      6.00      6.00       12.0000    1.7000
   41  C               0.0000   -2.8084   -4.6920      6.00      6.00       12.0000    1.7000
   42  H               0.0000   -3.3705   -5.6198      1.00      1.00        1.0078    1.2000
   43  C               0.0000   -3.4412   -3.4776      6.00      6.00       12.0000    1.7000
   44  H               0.0000   -4.5212   -3.4025      1.00      1.00        1.0078    1.2000
   45  C               0.0000   -2.6669   -2.3122      6.00      6.00       12.0000    1.7000
   46  H               0.0000   -3.1315   -1.3335      1.00      1.00        1.0078    1.2000
   47  N               0.0000   -1.3522   -2.3215      7.00      7.00       14.0031    1.5500
   48  C               0.0000   -0.7178   -3.5038      6.00      6.00       12.0000    1.7000
   49  C               0.0000    0.7178   -3.5038      6.00      6.00       12.0000    1.7000


 FRAGMENTS
 =========                                     Atoms in this Fragment     Cart. coord.s (Angstrom)
                                               -------------------------------------------------------
    1  U                                                 1  U            0.0000    0.0000    0.1172
    2  O                                                 2  O            0.0000    1.7339    0.3814
    3  O                                                 3  O            0.0000   -1.7339    0.3814
    4  N                                                 4  N            1.3700    0.0000    2.4205
    5  N                                                23  N           -1.3700    0.0000    2.4205
    6  N                                                28  N            0.0000    1.3522   -2.3215
    7  N                                                47  N            0.0000   -1.3522   -2.3215
    8  C                                                 5  C            2.6900    0.0000    2.4279
    9  C                                                 7  C            3.4497    0.0000    3.6024
   10  C                                                 9  C            2.8054    0.0000    4.8081
   11  C                                                11  C            1.4030    0.0000    4.8357
   12  C                                                12  C            0.6755    0.0000    6.0604
   13  C                                                14  C           -0.6755    0.0000    6.0604
   14  C                                                16  C           -1.4030    0.0000    4.8357
   15  C                                                17  C           -2.8054    0.0000    4.8081
   16  C                                                19  C           -3.4497    0.0000    3.6024
   17  C                                                21  C           -2.6900    0.0000    2.4279
   18  C                                                24  C           -0.7185    0.0000    3.6020
   19  C                                                25  C            0.7185    0.0000    3.6020
   20  C                                                29  C            0.0000    2.6669   -2.3122
   21  C                                                31  C            0.0000    3.4412   -3.4776
   22  C                                                33  C            0.0000    2.8084   -4.6920
   23  C                                                35  C            0.0000    1.4067   -4.7337
   24  C                                                36  C            0.0000    0.6761   -5.9581
   25  C                                                38  C            0.0000   -0.6761   -5.9581
   26  C                                                40  C            0.0000   -1.4067   -4.7337
   27  C                                                41  C            0.0000   -2.8084   -4.6920
   28  C                                                43  C            0.0000   -3.4412   -3.4776
   29  C                                                45  C            0.0000   -2.6669   -2.3122
   30  C                                                48  C            0.0000   -0.7178   -3.5038
   31  C                                                49  C            0.0000    0.7178   -3.5038
   32  H                                                 6  H            3.1641    0.0000    1.4529
   33  H                                                 8  H            4.5299    0.0000    3.5339
   34  H                                                10  H            3.3558    0.0000    5.7428
   35  H                                                13  H            1.2322    0.0000    6.9908
   36  H                                                15  H           -1.2322    0.0000    6.9908
   37  H                                                18  H           -3.3558    0.0000    5.7428
   38  H                                                20  H           -4.5299    0.0000    3.5339
   39  H                                                22  H           -3.1641    0.0000    1.4529
   40  H                                                30  H            0.0000    3.1315   -1.3335
   41  H                                                32  H            0.0000    4.5212   -3.4025
   42  H                                                34  H            0.0000    3.3705   -5.6198
   43  H                                                37  H            0.0000    1.2304   -6.8903
   44  H                                                39  H            0.0000   -1.2304   -6.8903
   45  H                                                42  H            0.0000   -3.3705   -5.6198
   46  H                                                44  H            0.0000   -4.5212   -3.4025
   47  H                                                46  H            0.0000   -3.1315   -1.3335
   48  Cl                                               26  Cl           2.4979    0.0000   -0.7978
   49  Cl                                               27  Cl          -2.4979    0.0000   -0.7978



 =====================================
 S Y M M E T R Y ,   E L E C T R O N S
 =====================================
  
 Symmetry: NOSYM

 Irreducible Representations, including subspecies
 -------------------------------------------------
 A

 Symmetry is NOT used when fitting density


 Configuration of Valence Electrons
 ==================================
 ( determined in the SCF procedure )

 Total:   330

 Net Charge: 0 (Nuclei minus Electrons)

 Aufbau principle for MO occupations will be applied through SCF cycle no.     150
 Thereafter, the program will assign electrons to MOs that are spatially
 similar to the occupied MOs in a "reference" cycle ("KeepOrbitals").
 The reference cycle is always the PREVIOUS cycle: it will evolve with
 the SCF procedure.
1
 ***************************************************************************************************



                                      ****************************************
                                      *  B U I L D : (Fragments, Functions)  *
                                      ****************************************
  

 Total nr. of (C)SFOs (summation over all irreps) :  1159

 Specify PRINT SFO in the input file to get a full list

 Nr. of SFOs for ir.rep.           A :  1159



 ================================
 (Slater-type)  F U N C T I O N S  ***  (Basis and Fit)  ***
 ================================
  

 Atom Type    1  (U)
 ==============

 Valence Basis Sets:  43
 -----------------------
   1 S 1060.000000
   1 S  245.000000
   1 S  108.800000
   2 S  134.900000
   2 S   47.200000
   3 S   60.000000
   3 S   25.900000
   4 S   15.800000
   4 S   11.100000
   5 S   10.450000
   5 S    7.250000
   6 S    5.000000
   6 S    3.300000
   7 S    2.350000
   7 S    1.550000
   7 S    1.020000
   2 P  245.000000
   2 P   85.500000
   2 P   44.200000
   3 P   25.100000
   3 P   18.100000
   4 P   17.900000
   4 P   12.300000
   5 P    8.650000
   5 P    6.000000
   6 P    4.450000
   6 P    3.000000
   6 P    2.100000
   3 D   33.250000
   3 D   22.050000
   4 D   15.250000
   4 D   10.550000
   5 D    7.250000
   5 D    4.650000
   6 D    2.900000
   6 D    1.600000
   6 D    0.880000
   4 F   17.450000
   4 F    9.600000
   5 F    5.800000
   5 F    3.000000
   5 F    1.390000
   7 P    1.550000

 Charge Fitting Sets (for the computation of the Coulomb Potential):  87
 -----------------------------------------------------------------------
   1 S 2120.000000
   1 S 1594.965000
   1 S 1199.960000
   1 S  902.780000
   1 S  679.200000
   1 S  510.990000
   1 S  384.440000
   1 S  289.230000
   1 S  217.600000
   1 S  129.260000
   2 S  142.240000
   2 S   95.100000
   3 S   93.370000
   3 S   66.470000
   4 S   62.580000
   4 S   46.380000
   5 S   42.820000
   5 S   32.660000
   6 S   29.850000
   6 S   23.270000
   7 S   21.150000
   7 S   16.770000
   8 S   15.210000
   8 S   12.230000
   9 S   11.070000
   9 S    9.010000
  10 S    8.150000
  10 S    6.700000
  11 S    6.070000
  11 S    5.030000
  12 S    4.550000
  12 S    3.810000
  12 S    3.180000
  13 S    2.880000
  13 S    2.420000
  13 S    2.040000
   2 P  153.000000
   3 P  127.690000
   4 P  104.620000
   5 P   85.360000
   6 P   69.720000
   7 P   57.130000
   7 P   40.980000
   8 P   33.710000
   8 P   24.670000
   9 P   20.380000
   9 P   15.180000
  10 P   12.590000
  10 P    9.510000
  11 P    7.920000
  11 P    6.060000
  12 P    5.070000
  12 P    3.920000
  13 P    3.290000
  13 P    2.570000
   3 D  130.850000
   4 D   91.890000
   5 D   65.340000
   6 D   47.080000
   7 D   34.350000
   8 D   25.360000
   9 D   18.910000
   9 D   12.740000
  10 D    9.600000
  10 D    6.590000
  11 D    5.010000
  11 D    3.500000
  12 D    2.680000
  12 D    1.900000
   4 F  118.400000
   5 F   72.780000
   6 F   45.920000
   7 F   29.630000
   8 F   19.500000
   9 F   13.050000
  10 F    8.870000
  10 F    5.510000
  11 F    3.800000
  11 F    2.410000
   5 G   53.800000
   6 G   31.220000
   7 G   18.640000
   8 G   11.410000
   9 G    7.140000
  10 G    4.550000
  11 G    2.950000
  11 G    1.760000

 Atom Type    2  (O)
 ==============

 Valence Basis Sets:  10
 -----------------------
   1 S    9.800000
   1 S    6.800000
   2 S    7.580000
   2 S    2.880000
   2 S    1.720000
   2 P    4.080000
   2 P    2.080000
   2 P    1.120000
   3 D    2.000000
   4 F    3.000000

 Charge Fitting Sets (for the computation of the Coulomb Potential):  22
 -----------------------------------------------------------------------
   1 S   19.600000
   2 S   22.600000
   2 S   15.680000
   2 S   10.890000
   2 S    7.560000
   3 S    7.690000
   3 S    5.650000
   3 S    4.150000
   3 S    3.050000
   3 S    2.240000
   2 P   12.860000
   2 P    7.680000
   3 P    6.780000
   3 P    4.390000
   3 P    2.840000
   3 D    8.800000
   3 D    5.580000
   3 D    3.530000
   3 D    2.240000
   4 F    6.200000
   4 F    3.700000
   5 G    4.500000

 Atom Type    3  (N)
 ==============

 Valence Basis Sets:  10
 -----------------------
   1 S    8.740000
   1 S    5.900000
   2 S    5.150000
   2 S    2.500000
   2 S    1.500000
   2 P    3.680000
   2 P    1.880000
   2 P    1.000000
   3 D    2.200000
   4 F    3.300000

 Charge Fitting Sets (for the computation of the Coulomb Potential):  22
 -----------------------------------------------------------------------
   1 S   17.480000
   2 S   20.150000
   2 S   13.990000
   2 S    9.710000
   2 S    6.740000
   3 S    6.860000
   3 S    5.040000
   3 S    3.700000
   3 S    2.720000
   3 S    2.000000
   2 P   11.320000
   2 P    6.730000
   3 P    5.920000
   3 P    3.820000
   3 P    2.460000
   3 D    8.100000
   3 D    5.080000
   3 D    3.190000
   3 D    2.000000
   4 F    5.800000
   4 F    3.600000
   5 G    4.500000

 Atom Type    4  (C)
 ==============

 Valence Basis Sets:  10
 -----------------------
   1 S    7.680000
   1 S    5.000000
   2 S    1.280000
   2 S    2.100000
   2 S    4.600000
   2 P    0.820000
   2 P    1.480000
   2 P    2.940000
   3 D    2.200000
   4 F    3.300000

 Charge Fitting Sets (for the computation of the Coulomb Potential):  22
 -----------------------------------------------------------------------
   1 S   15.360000
   2 S   17.530000
   2 S   12.070000
   2 S    8.310000
   2 S    5.730000
   3 S    5.780000
   3 S    4.220000
   3 S    3.080000
   3 S    2.250000
   3 S    1.640000
   2 P    9.880000
   2 P    5.800000
   3 P    5.050000
   3 P    3.230000
   3 P    2.060000
   3 D    7.200000
   3 D    4.400000
   3 D    2.690000
   3 D    1.640000
   4 F    5.400000
   4 F    3.550000
   5 G    4.500000

 Atom Type    5  (H)
 ==============

 Valence Basis Sets:   5
 -----------------------
   1 S    0.690000
   1 S    0.920000
   1 S    1.580000
   2 P    1.250000
   3 D    2.500000

 Charge Fitting Sets (for the computation of the Coulomb Potential):  11
 -----------------------------------------------------------------------
   1 S    3.160000
   1 S    2.090000
   1 S    1.380000
   2 S    1.500000
   2 P    4.000000
   2 P    2.650000
   2 P    1.750000
   3 D    4.000000
   3 D    2.500000
   4 F    3.000000
   5 G    4.000000

 Atom Type    6  (Cl)
 ==============

 Valence Basis Sets:  14
 -----------------------
   1 S   20.300000
   1 S   15.250000
   2 S    6.250000
   2 S    4.450000
   2 P    8.850000
   2 P    5.050000
   3 S    3.450000
   3 S    2.300000
   3 S    1.600000
   3 P    3.350000
   3 P    2.050000
   3 P    1.200000
   3 D    2.000000
   4 F    2.000000

 Charge Fitting Sets (for the computation of the Coulomb Potential):  30
 -----------------------------------------------------------------------
   1 S   40.600000
   1 S   24.830000
   2 S   28.080000
   2 S   19.200000
   3 S   19.250000
   3 S   13.970000
   3 S   10.130000
   4 S    9.710000
   4 S    7.320000
   4 S    5.510000
   5 S    5.170000
   5 S    4.000000
   5 S    3.100000
   5 S    2.400000
   2 P   29.150000
   3 P   21.740000
   4 P   16.160000
   4 P    9.600000
   5 P    7.180000
   5 P    4.480000
   5 P    2.800000
   3 D   21.950000
   4 D   15.750000
   4 D    9.040000
   5 D    6.550000
   5 D    3.960000
   5 D    2.400000
   4 F    5.000000
   4 F    3.000000
   5 G    3.500000


 BAS: List of all Elementary Cartesian Basis Functions
 =====================================================

 The numbering in the list below (to the right of the function characteristics) is referred
 to in print-outs of MO eigenvectors and Mulliken populations in the BAS representation
 (as contrasted to the SFO representation).

 Notes:
 1. The functions are characterized by a polynomial prefactor (powers of x,y,z and r) and
    an exponential decay factor alpha.
 2. Since the basis sets are specific for an atom TYPE, the individual functions occur on
    all atoms of that type.
 3. The word 'Core' in the left margin signals that it is a Core Function (CF) : not a
    degree of freedom in the valence set, but only used to ensure orthogonalization of
    the other valence basis functions on the frozen Core Orbitals.


 (power of) X  Y  Z  R     Alpha  on Atom
            ==========     =====     ==========

 U                                    1
                                  ---------------------------------------------------------------------------
            0  0  0  0  1060.000      1
            0  0  0  0   245.000      2
            0  0  0  0   108.800      3
            0  0  0  1   134.900      4
            0  0  0  1    47.200      5
            0  0  0  2    60.000      6
            0  0  0  2    25.900      7
            0  0  0  3    15.800      8
            0  0  0  3    11.100      9
            0  0  0  4    10.450     10
            0  0  0  4     7.250     11
            0  0  0  5     5.000     12
            0  0  0  5     3.300     13
            0  0  0  6     2.350     14
            0  0  0  6     1.550     15
            0  0  0  6     1.020     16
            1  0  0  0   245.000     17
            0  1  0  0   245.000     18
            0  0  1  0   245.000     19
            1  0  0  0    85.500     20
            0  1  0  0    85.500     21
            0  0  1  0    85.500     22
            1  0  0  0    44.200     23
            0  1  0  0    44.200     24
            0  0  1  0    44.200     25
            1  0  0  1    25.100     26
            0  1  0  1    25.100     27
            0  0  1  1    25.100     28
            1  0  0  1    18.100     29
            0  1  0  1    18.100     30
            0  0  1  1    18.100     31
            1  0  0  2    17.900     32
            0  1  0  2    17.900     33
            0  0  1  2    17.900     34
            1  0  0  2    12.300     35
            0  1  0  2    12.300     36
            0  0  1  2    12.300     37
            1  0  0  3     8.650     38
            0  1  0  3     8.650     39
            0  0  1  3     8.650     40
            1  0  0  3     6.000     41
            0  1  0  3     6.000     42
            0  0  1  3     6.000     43
            1  0  0  4     4.450     44
            0  1  0  4     4.450     45
            0  0  1  4     4.450     46
            1  0  0  4     3.000     47
            0  1  0  4     3.000     48
            0  0  1  4     3.000     49
            1  0  0  4     2.100     50
            0  1  0  4     2.100     51
            0  0  1  4     2.100     52
            2  0  0  0    33.250     53
            1  1  0  0    33.250     54
            1  0  1  0    33.250     55
            0  2  0  0    33.250     56
            0  1  1  0    33.250     57
            0  0  2  0    33.250     58
            2  0  0  0    22.050     59
            1  1  0  0    22.050     60
            1  0  1  0    22.050     61
            0  2  0  0    22.050     62
            0  1  1  0    22.050     63
            0  0  2  0    22.050     64
            2  0  0  1    15.250     65
            1  1  0  1    15.250     66
            1  0  1  1    15.250     67
            0  2  0  1    15.250     68
            0  1  1  1    15.250     69
            0  0  2  1    15.250     70
            2  0  0  1    10.550     71
            1  1  0  1    10.550     72
            1  0  1  1    10.550     73
            0  2  0  1    10.550     74
            0  1  1  1    10.550     75
            0  0  2  1    10.550     76
            2  0  0  2     7.250     77
            1  1  0  2     7.250     78
            1  0  1  2     7.250     79
            0  2  0  2     7.250     80
            0  1  1  2     7.250     81
            0  0  2  2     7.250     82
            2  0  0  2     4.650     83
            1  1  0  2     4.650     84
            1  0  1  2     4.650     85
            0  2  0  2     4.650     86
            0  1  1  2     4.650     87
            0  0  2  2     4.650     88
            2  0  0  3     2.900     89
            1  1  0  3     2.900     90
            1  0  1  3     2.900     91
            0  2  0  3     2.900     92
            0  1  1  3     2.900     93
            0  0  2  3     2.900     94
            2  0  0  3     1.600     95
            1  1  0  3     1.600     96
            1  0  1  3     1.600     97
            0  2  0  3     1.600     98
            0  1  1  3     1.600     99
            0  0  2  3     1.600    100
            2  0  0  3     0.880    101
            1  1  0  3     0.880    102
            1  0  1  3     0.880    103
            0  2  0  3     0.880    104
            0  1  1  3     0.880    105
            0  0  2  3     0.880    106
            3  0  0  0    17.450    107
            2  1  0  0    17.450    108
            2  0  1  0    17.450    109
            1  2  0  0    17.450    110
            1  1  1  0    17.450    111
            1  0  2  0    17.450    112
            0  3  0  0    17.450    113
            0  2  1  0    17.450    114
            0  1  2  0    17.450    115
            0  0  3  0    17.450    116
            3  0  0  0     9.600    117
            2  1  0  0     9.600    118
            2  0  1  0     9.600    119
            1  2  0  0     9.600    120
            1  1  1  0     9.600    121
            1  0  2  0     9.600    122
            0  3  0  0     9.600    123
            0  2  1  0     9.600    124
            0  1  2  0     9.600    125
            0  0  3  0     9.600    126
            3  0  0  1     5.800    127
            2  1  0  1     5.800    128
            2  0  1  1     5.800    129
            1  2  0  1     5.800    130
            1  1  1  1     5.800    131
            1  0  2  1     5.800    132
            0  3  0  1     5.800    133
            0  2  1  1     5.800    134
            0  1  2  1     5.800    135
            0  0  3  1     5.800    136
            3  0  0  1     3.000    137
            2  1  0  1     3.000    138
            2  0  1  1     3.000    139
            1  2  0  1     3.000    140
            1  1  1  1     3.000    141
            1  0  2  1     3.000    142
            0  3  0  1     3.000    143
            0  2  1  1     3.000    144
            0  1  2  1     3.000    145
            0  0  3  1     3.000    146
            3  0  0  1     1.390    147
            2  1  0  1     1.390    148
            2  0  1  1     1.390    149
            1  2  0  1     1.390    150
            1  1  1  1     1.390    151
            1  0  2  1     1.390    152
            0  3  0  1     1.390    153
            0  2  1  1     1.390    154
            0  1  2  1     1.390    155
            0  0  3  1     1.390    156
            1  0  0  5     1.550    157
            0  1  0  5     1.550    158
            0  0  1  5     1.550    159

 O                                    2    3
                                  ---------------------------------------------------------------------------
            0  0  0  0     9.800    160  190
            0  0  0  0     6.800    161  191
            0  0  0  1     7.580    162  192
            0  0  0  1     2.880    163  193
            0  0  0  1     1.720    164  194
            1  0  0  0     4.080    165  195
            0  1  0  0     4.080    166  196
            0  0  1  0     4.080    167  197
            1  0  0  0     2.080    168  198
            0  1  0  0     2.080    169  199
            0  0  1  0     2.080    170  200
            1  0  0  0     1.120    171  201
            0  1  0  0     1.120    172  202
            0  0  1  0     1.120    173  203
            2  0  0  0     2.000    174  204
            1  1  0  0     2.000    175  205
            1  0  1  0     2.000    176  206
            0  2  0  0     2.000    177  207
            0  1  1  0     2.000    178  208
            0  0  2  0     2.000    179  209
            3  0  0  0     3.000    180  210
            2  1  0  0     3.000    181  211
            2  0  1  0     3.000    182  212
            1  2  0  0     3.000    183  213
            1  1  1  0     3.000    184  214
            1  0  2  0     3.000    185  215
            0  3  0  0     3.000    186  216
            0  2  1  0     3.000    187  217
            0  1  2  0     3.000    188  218
            0  0  3  0     3.000    189  219

 N                                    4    5    6    7
                                  ---------------------------------------------------------------------------
            0  0  0  0     8.740    220  250  280  310
            0  0  0  0     5.900    221  251  281  311
            0  0  0  1     5.150    222  252  282  312
            0  0  0  1     2.500    223  253  283  313
            0  0  0  1     1.500    224  254  284  314
            1  0  0  0     3.680    225  255  285  315
            0  1  0  0     3.680    226  256  286  316
            0  0  1  0     3.680    227  257  287  317
            1  0  0  0     1.880    228  258  288  318
            0  1  0  0     1.880    229  259  289  319
            0  0  1  0     1.880    230  260  290  320
            1  0  0  0     1.000    231  261  291  321
            0  1  0  0     1.000    232  262  292  322
            0  0  1  0     1.000    233  263  293  323
            2  0  0  0     2.200    234  264  294  324
            1  1  0  0     2.200    235  265  295  325
            1  0  1  0     2.200    236  266  296  326
            0  2  0  0     2.200    237  267  297  327
            0  1  1  0     2.200    238  268  298  328
            0  0  2  0     2.200    239  269  299  329
            3  0  0  0     3.300    240  270  300  330
            2  1  0  0     3.300    241  271  301  331
            2  0  1  0     3.300    242  272  302  332
            1  2  0  0     3.300    243  273  303  333
            1  1  1  0     3.300    244  274  304  334
            1  0  2  0     3.300    245  275  305  335
            0  3  0  0     3.300    246  276  306  336
            0  2  1  0     3.300    247  277  307  337
            0  1  2  0     3.300    248  278  308  338
            0  0  3  0     3.300    249  279  309  339

 C                                    8    9   10   11   12   13   14   15   16   17   18   19   20   21   22
                                     23   24   25   26   27   28   29   30   31
                                  ---------------------------------------------------------------------------
            0  0  0  0     7.680    340  370  400  430  460  490  520  550  580  610  640  670  700  730  760
                                    790  820  850  880  910  940  970 1000 1030
            0  0  0  0     5.000    341  371  401  431  461  491  521  551  581  611  641  671  701  731  761
                                    791  821  851  881  911  941  971 1001 1031
            0  0  0  1     1.280    342  372  402  432  462  492  522  552  582  612  642  672  702  732  762
                                    792  822  852  882  912  942  972 1002 1032
            0  0  0  1     2.100    343  373  403  433  463  493  523  553  583  613  643  673  703  733  763
                                    793  823  853  883  913  943  973 1003 1033
            0  0  0  1     4.600    344  374  404  434  464  494  524  554  584  614  644  674  704  734  764
                                    794  824  854  884  914  944  974 1004 1034
            1  0  0  0     0.820    345  375  405  435  465  495  525  555  585  615  645  675  705  735  765
                                    795  825  855  885  915  945  975 1005 1035
            0  1  0  0     0.820    346  376  406  436  466  496  526  556  586  616  646  676  706  736  766
                                    796  826  856  886  916  946  976 1006 1036
            0  0  1  0     0.820    347  377  407  437  467  497  527  557  587  617  647  677  707  737  767
                                    797  827  857  887  917  947  977 1007 1037
            1  0  0  0     1.480    348  378  408  438  468  498  528  558  588  618  648  678  708  738  768
                                    798  828  858  888  918  948  978 1008 1038
            0  1  0  0     1.480    349  379  409  439  469  499  529  559  589  619  649  679  709  739  769
                                    799  829  859  889  919  949  979 1009 1039
            0  0  1  0     1.480    350  380  410  440  470  500  530  560  590  620  650  680  710  740  770
                                    800  830  860  890  920  950  980 1010 1040
            1  0  0  0     2.940    351  381  411  441  471  501  531  561  591  621  651  681  711  741  771
                                    801  831  861  891  921  951  981 1011 1041
            0  1  0  0     2.940    352  382  412  442  472  502  532  562  592  622  652  682  712  742  772
                                    802  832  862  892  922  952  982 1012 1042
            0  0  1  0     2.940    353  383  413  443  473  503  533  563  593  623  653  683  713  743  773
                                    803  833  863  893  923  953  983 1013 1043
            2  0  0  0     2.200    354  384  414  444  474  504  534  564  594  624  654  684  714  744  774
                                    804  834  864  894  924  954  984 1014 1044
            1  1  0  0     2.200    355  385  415  445  475  505  535  565  595  625  655  685  715  745  775
                                    805  835  865  895  925  955  985 1015 1045
            1  0  1  0     2.200    356  386  416  446  476  506  536  566  596  626  656  686  716  746  776
                                    806  836  866  896  926  956  986 1016 1046
            0  2  0  0     2.200    357  387  417  447  477  507  537  567  597  627  657  687  717  747  777
                                    807  837  867  897  927  957  987 1017 1047
            0  1  1  0     2.200    358  388  418  448  478  508  538  568  598  628  658  688  718  748  778
                                    808  838  868  898  928  958  988 1018 1048
            0  0  2  0     2.200    359  389  419  449  479  509  539  569  599  629  659  689  719  749  779
                                    809  839  869  899  929  959  989 1019 1049
            3  0  0  0     3.300    360  390  420  450  480  510  540  570  600  630  660  690  720  750  780
                                    810  840  870  900  930  960  990 1020 1050
            2  1  0  0     3.300    361  391  421  451  481  511  541  571  601  631  661  691  721  751  781
                                    811  841  871  901  931  961  991 1021 1051
            2  0  1  0     3.300    362  392  422  452  482  512  542  572  602  632  662  692  722  752  782
                                    812  842  872  902  932  962  992 1022 1052
            1  2  0  0     3.300    363  393  423  453  483  513  543  573  603  633  663  693  723  753  783
                                    813  843  873  903  933  963  993 1023 1053
            1  1  1  0     3.300    364  394  424  454  484  514  544  574  604  634  664  694  724  754  784
                                    814  844  874  904  934  964  994 1024 1054
            1  0  2  0     3.300    365  395  425  455  485  515  545  575  605  635  665  695  725  755  785
                                    815  845  875  905  935  965  995 1025 1055
            0  3  0  0     3.300    366  396  426  456  486  516  546  576  606  636  666  696  726  756  786
                                    816  846  876  906  936  966  996 1026 1056
            0  2  1  0     3.300    367  397  427  457  487  517  547  577  607  637  667  697  727  757  787
                                    817  847  877  907  937  967  997 1027 1057
            0  1  2  0     3.300    368  398  428  458  488  518  548  578  608  638  668  698  728  758  788
                                    818  848  878  908  938  968  998 1028 1058
            0  0  3  0     3.300    369  399  429  459  489  519  549  579  609  639  669  699  729  759  789
                                    819  849  879  909  939  969  999 1029 1059

 H                                   32   33   34   35   36   37   38   39   40   41   42   43   44   45   46
                                     47
                                  ---------------------------------------------------------------------------
            0  0  0  0     0.690   1060 1072 1084 1096 1108 1120 1132 1144 1156 1168 1180 1192 1204 1216 1228
                                   1240
            0  0  0  0     0.920   1061 1073 1085 1097 1109 1121 1133 1145 1157 1169 1181 1193 1205 1217 1229
                                   1241
            0  0  0  0     1.580   1062 1074 1086 1098 1110 1122 1134 1146 1158 1170 1182 1194 1206 1218 1230
                                   1242
            1  0  0  0     1.250   1063 1075 1087 1099 1111 1123 1135 1147 1159 1171 1183 1195 1207 1219 1231
                                   1243
            0  1  0  0     1.250   1064 1076 1088 1100 1112 1124 1136 1148 1160 1172 1184 1196 1208 1220 1232
                                   1244
            0  0  1  0     1.250   1065 1077 1089 1101 1113 1125 1137 1149 1161 1173 1185 1197 1209 1221 1233
                                   1245
            2  0  0  0     2.500   1066 1078 1090 1102 1114 1126 1138 1150 1162 1174 1186 1198 1210 1222 1234
                                   1246
            1  1  0  0     2.500   1067 1079 1091 1103 1115 1127 1139 1151 1163 1175 1187 1199 1211 1223 1235
                                   1247
            1  0  1  0     2.500   1068 1080 1092 1104 1116 1128 1140 1152 1164 1176 1188 1200 1212 1224 1236
                                   1248
            0  2  0  0     2.500   1069 1081 1093 1105 1117 1129 1141 1153 1165 1177 1189 1201 1213 1225 1237
                                   1249
            0  1  1  0     2.500   1070 1082 1094 1106 1118 1130 1142 1154 1166 1178 1190 1202 1214 1226 1238
                                   1250
            0  0  2  0     2.500   1071 1083 1095 1107 1119 1131 1143 1155 1167 1179 1191 1203 1215 1227 1239
                                   1251

 Cl                                  48   49
                                  ---------------------------------------------------------------------------
            0  0  0  0    20.300   1252 1290
            0  0  0  0    15.250   1253 1291
            0  0  0  1     6.250   1254 1292
            0  0  0  1     4.450   1255 1293
            1  0  0  0     8.850   1256 1294
            0  1  0  0     8.850   1257 1295
            0  0  1  0     8.850   1258 1296
            1  0  0  0     5.050   1259 1297
            0  1  0  0     5.050   1260 1298
            0  0  1  0     5.050   1261 1299
            0  0  0  2     3.450   1262 1300
            0  0  0  2     2.300   1263 1301
            0  0  0  2     1.600   1264 1302
            1  0  0  1     3.350   1265 1303
            0  1  0  1     3.350   1266 1304
            0  0  1  1     3.350   1267 1305
            1  0  0  1     2.050   1268 1306
            0  1  0  1     2.050   1269 1307
            0  0  1  1     2.050   1270 1308
            1  0  0  1     1.200   1271 1309
            0  1  0  1     1.200   1272 1310
            0  0  1  1     1.200   1273 1311
            2  0  0  0     2.000   1274 1312
            1  1  0  0     2.000   1275 1313
            1  0  1  0     2.000   1276 1314
            0  2  0  0     2.000   1277 1315
            0  1  1  0     2.000   1278 1316
            0  0  2  0     2.000   1279 1317
            3  0  0  0     2.000   1280 1318
            2  1  0  0     2.000   1281 1319
            2  0  1  0     2.000   1282 1320
            1  2  0  0     2.000   1283 1321
            1  1  1  0     2.000   1284 1322
            1  0  2  0     2.000   1285 1323
            0  3  0  0     2.000   1286 1324
            0  2  1  0     2.000   1287 1325
            0  1  2  0     2.000   1288 1326
            0  0  3  0     2.000   1289 1327

 Total number of charge fitting functions (nprimf)      3929
 Total number of Cartesian basis functions (naos)       1327
 Total number of Cartesian core functions  (ncos)          0

1
 ***************************************************************************************************



                                              ***********************
                                              *  T E C H N I C A L  *
                                              ***********************
  



 =============================================================
 P A R A L L E L I Z A T I O N  and  V E C T O R I Z A T I O N
 =============================================================
  
 Nr of parallel processes:                               16
 Maximum vector length in NumInt loops:                 128



 =====================
 S C F   U P D A T E S
 =====================
  
 Max. nr. of cycles:                               300
 Convergence criterion:                              0.0000010000
   secondary criterion:                              0.0010000000

 Mix parameter (when DIIS does not apply):           0.2000000000
 Mixed ADIIS+SDIIS will be used                  
    Max number of expansion vectors:                10
    Pure ADIIS when Max([F,P]) is above              0.1000000000
    Pure SDIIS when Max([F,P]) is below              0.0010000000
 Automatic ElectronSmearing (in case of problematic SCF convergence) disabled



 =================
 P R E C I S I O N  ***  (General: NumInt, NeglectFunctionTails, ...)  ***
 =================
  

 NumInt:           Target precision:                 4.0000000000
 -------           Initial precision:                4.0000000000
                   Min. precision (optimization):    4.0000000000

 Neglect Functions:          Basis functions:        0.1000000000E-13
 ------------------          Fit functions:          0.1000000000E-13



 ===========================
 L I N E A R   S C A L I N G
 ===========================
  

 Cut-off radii density fit:                        0.1000000000E-07
 Overlap cut-off criterion AO matrix elements:     0.1000000000E-05
 Cut-offs for Coulomb potential and fitted density:0.1000000000E-07
 Cut-off criterion for Coulomb multipole terms:    0.1000000000E-07
 Progressive Convergence parameter:                 0.000000000    
1
 ***************************************************************************************************



                                            ***************************
                                            *  C O M P U T A T I O N  *
                                            ***************************
  

 Number of elements of the density matrix on this node (used, total):     53496    881128



 ===========================================
 Numerical Integration : Fuzzy Cells (Becke)
 ===========================================
  
 Becke grid quality: NORMAL         
  
 Lebedev angular grid order:             min:  11 max:  23
 Nr. of radial points:                   min:  46 max: 175

 Total nr. of points:     342992
 Nr. of blocks:             2680
 Block length:               128
 Nr. of dummy points:         48


 Test of Precision of the Numerical Integration Grid
 ===================================================

 Integral of the Total Core Density:                   0.00000000000000


 -------------------------------------------
  COSMO surface
  Area             =         1391.536
  Volume           =         2896.502
  Number of Points =         4182
 -------------------------------------------



 ========================
 Density Fitting (zlmFit)
 ========================
  
 ZlmFit Fit Quality: NORMAL         
  
 Max L-expansion:                        min:   6 max:   7
 Nr. of radial interpolation points:     min:  39 max: 150



 ======================
 RI Hartree-Fock Scheme
 ======================
  
 Fit Set Quality     : NORMAL
 Integration Quality : NORMAL
 Threshold Quality   : NORMAL
 Response Quality    : DEFAULT
 Is Range Separated  :  T
 Type of Range Separation : 
 Long-Range: Erf potential                                                      
                                                                                
   
 Asymptotic Coulomb       :   0.650000000000000     
 
 RIHartreeFock Dependency: number of modified vectors:          54



 =====
 S C F  ***  ScaSCF  ***
 =====
  
 Initial density matrix is calculated as sum of fragments

 CYCLE    1
 SCF Error: norm([F,P])=     16.851061555648, max([F,P])=      2.158301028680
 orbitals (Q,E):
 ---------------
 A :156...175        ( 2.00    -0.4361)  ( 2.00    -0.4344)  ( 2.00    -0.4308)  ( 2.00    -0.4255)
                     ( 2.00    -0.4245)  ( 2.00    -0.4094)  ( 2.00    -0.4088)  ( 2.00    -0.3946)
                     ( 2.00    -0.3939)  ( 2.00    -0.3811)  ( 0.00    -0.2428)  ( 0.00    -0.2409)
                     ( 0.00    -0.2340)  ( 0.00    -0.2336)  ( 0.00    -0.1848)  ( 0.00    -0.1841)
                     ( 0.00    -0.1549)  ( 0.00    -0.1531)  ( 0.00    -0.1126)  ( 0.00    -0.1125)

 CYCLE    2
   MIX coefficients:  0.8000  0.2000
 SCF Error: norm([F,P])=      2.679707264794, max([F,P])=      0.376175829094
 orbitals (Q,E):
 ---------------
 A :156...166        ( 2.00    -0.4190)  ( 2.00    -0.4106)  ( 2.00    -0.4083)  ( 2.00    -0.4075)
                     ( 2.00    -0.4027)  ( 2.00    -0.3833)  ( 2.00    -0.3775)  ( 2.00    -0.3755)
                     ( 2.00    -0.3631)  ( 2.00    -0.3605)  ( 0.00    -0.1896)

 CYCLE    3
  SDIIS (wt  0.000): -0.5554  1.5554
 A-DIIS (wt  1.000):  0.0000  1.0000
  DIIS coefficients:  0.0000  1.0000
 SCF Error: norm([F,P])=      1.178085926442, max([F,P])=      0.151589441158
 orbitals (Q,E):
 ---------------
 A :156...166        ( 2.00    -0.3276)  ( 2.00    -0.3267)  ( 2.00    -0.3226)  ( 2.00    -0.3151)
                     ( 2.00    -0.3086)  ( 2.00    -0.2974)  ( 2.00    -0.2730)  ( 2.00    -0.2643)
                     ( 2.00    -0.2567)  ( 2.00    -0.2482)  ( 0.00    -0.2039)

 CYCLE    4
  SDIIS (wt  0.000): -0.3009  1.2043  0.0966
 A-DIIS (wt  1.000):  0.0000  0.8564  0.1436
  DIIS coefficients:  0.0000  0.8564  0.1436
 SCF Error: norm([F,P])=      4.355106968671, max([F,P])=      0.908507858141
 orbitals (Q,E):
 ---------------
 A :156...166        ( 2.00    -0.3257)  ( 2.00    -0.3214)  ( 2.00    -0.3213)  ( 2.00    -0.3207)
                     ( 2.00    -0.3066)  ( 2.00    -0.2918)  ( 2.00    -0.2808)  ( 2.00    -0.2748)
                     ( 2.00    -0.2650)  ( 2.00    -0.2586)  ( 0.00    -0.0342)

 CYCLE    5
  SDIIS (wt  0.113):  0.0581  0.2429  0.0066  0.6924
 A-DIIS (wt  0.887):  0.0000  0.0892  0.0000  0.9108
  DIIS coefficients:  0.0065  0.1065  0.0007  0.8862
 SCF Error: norm([F,P])=      0.626774854771, max([F,P])=      0.088848367802
 orbitals (Q,E):
 ---------------
 A :156...166        ( 2.00    -0.3613)  ( 2.00    -0.3605)  ( 2.00    -0.3559)  ( 2.00    -0.3530)
                     ( 2.00    -0.3527)  ( 2.00    -0.3470)  ( 2.00    -0.3211)  ( 2.00    -0.3174)
                     ( 2.00    -0.3089)  ( 2.00    -0.3045)  ( 0.00    -0.0473)

 CYCLE    6
  SDIIS (wt  0.000): -0.1410  0.2402  0.0261  0.3460  0.5287
 A-DIIS (wt  1.000):  0.0000  0.0000  0.0000  0.5679  0.4321
  DIIS coefficients:  0.0000  0.0000  0.0000  0.5679  0.4321
 SCF Error: norm([F,P])=      0.806512227707, max([F,P])=      0.138206929488
 orbitals (Q,E):
 ---------------
 A :156...166        ( 2.00    -0.3642)  ( 2.00    -0.3563)  ( 2.00    -0.3558)  ( 2.00    -0.3553)
                     ( 2.00    -0.3551)  ( 2.00    -0.3484)  ( 2.00    -0.3182)  ( 2.00    -0.3143)
                     ( 2.00    -0.3051)  ( 2.00    -0.3004)  ( 0.00    -0.0773)

 CYCLE    7
  SDIIS (wt  0.511):  0.0156 -0.0192 -0.0199  0.2819  0.2063  0.5353
 A-DIIS (wt  0.489):  0.0000  0.0000  0.0000  0.0000  0.0952  0.9048
  DIIS coefficients:  0.0080 -0.0098 -0.0102  0.1441  0.1520  0.7159
 SCF Error: norm([F,P])=      0.288295376413, max([F,P])=      0.049385264321
 orbitals (Q,E):
 ---------------
 A :156...166        ( 2.00    -0.3515)  ( 2.00    -0.3466)  ( 2.00    -0.3460)  ( 2.00    -0.3452)
                     ( 2.00    -0.3371)  ( 2.00    -0.3345)  ( 2.00    -0.3093)  ( 2.00    -0.3043)
                     ( 2.00    -0.2953)  ( 2.00    -0.2897)  ( 0.00    -0.0332)

 CYCLE    8
  SDIIS (wt  0.616): -0.0095 -0.0022 -0.0059  0.0883  0.0915  0.4487  0.3892
 A-DIIS (wt  0.384):  0.0000  0.0000  0.0000  0.0000  0.0000  0.4199  0.5801
  DIIS coefficients: -0.0058 -0.0014 -0.0036  0.0544  0.0563  0.4376  0.4625
 SCF Error: norm([F,P])=      0.233579413209, max([F,P])=      0.039034049766
 orbitals (Q,E):
 ---------------
 A :156...166        ( 2.00    -0.3555)  ( 2.00    -0.3489)  ( 2.00    -0.3488)  ( 2.00    -0.3487)
                     ( 2.00    -0.3432)  ( 2.00    -0.3409)  ( 2.00    -0.3106)  ( 2.00    -0.3060)
                     ( 2.00    -0.2971)  ( 2.00    -0.2920)  ( 0.00    -0.0483)

 CYCLE    9
  SDIIS (wt  0.969): -0.0028 -0.0031 -0.0013  0.0023  0.0098  0.1694  0.2397  0.5860
 A-DIIS (wt  0.031):  0.0000  0.0000  0.0000  0.0000  0.0000  0.0000  0.0000  1.0000
  DIIS coefficients: -0.0027 -0.0030 -0.0012  0.0023  0.0095  0.1642  0.2324  0.5986
 SCF Error: norm([F,P])=      0.023549356993, max([F,P])=      0.004022241092
 orbitals (Q,E):
 ---------------
 A :156...166        ( 2.00    -0.3554)  ( 2.00    -0.3489)  ( 2.00    -0.3489)  ( 2.00    -0.3487)
                     ( 2.00    -0.3423)  ( 2.00    -0.3406)  ( 2.00    -0.3110)  ( 2.00    -0.3065)
                     ( 2.00    -0.2975)  ( 2.00    -0.2923)  ( 0.00    -0.0469)

 CYCLE   10
  SDIIS (wt  0.997):  0.0011 -0.0026 -0.0004 -0.0075 -0.0088  0.0207  0.0408  0.2741  0.6825
 A-DIIS (wt  0.003):  0.0000  0.0000  0.0000  0.0000  0.0000  0.0000  0.0000  0.0032  0.9968
  DIIS coefficients:  0.0011 -0.0026 -0.0004 -0.0074 -0.0088  0.0206  0.0407  0.2733  0.6834
 SCF Error: norm([F,P])=      0.005909876440, max([F,P])=      0.001283269508
 orbitals (Q,E):
 ---------------
 A :156...166        ( 2.00    -0.3556)  ( 2.00    -0.3490)  ( 2.00    -0.3490)  ( 2.00    -0.3488)
                     ( 2.00    -0.3427)  ( 2.00    -0.3408)  ( 2.00    -0.3111)  ( 2.00    -0.3065)
                     ( 2.00    -0.2976)  ( 2.00    -0.2924)  ( 0.00    -0.0474)

 CYCLE   11
  SDIIS (wt  1.000):  0.0009 -0.0003 -0.0000 -0.0027 -0.0043 -0.0248 -0.0319 -0.0287  0.1760  0.9159
  DIIS coefficients:  0.0009 -0.0003 -0.0000 -0.0027 -0.0043 -0.0248 -0.0319 -0.0287  0.1760  0.9159
 SCF Error: norm([F,P])=      0.001329791697, max([F,P])=      0.000260353455
 orbitals (Q,E):
 ---------------
 A :156...166        ( 2.00    -0.3556)  ( 2.00    -0.3490)  ( 2.00    -0.3489)  ( 2.00    -0.3488)
                     ( 2.00    -0.3426)  ( 2.00    -0.3408)  ( 2.00    -0.3111)  ( 2.00    -0.3065)
                     ( 2.00    -0.2976)  ( 2.00    -0.2924)  ( 0.00    -0.0474)

 CYCLE   12
  SDIIS (wt  1.000):  0.0005  0.0001 -0.0006 -0.0004 -0.0142 -0.0184 -0.0431 -0.0007  0.4191  0.6577
  DIIS coefficients:  0.0005  0.0001 -0.0006 -0.0004 -0.0142 -0.0184 -0.0431 -0.0007  0.4191  0.6577
 SCF Error: norm([F,P])=      0.000704620346, max([F,P])=      0.000144918207
 orbitals (Q,E):
 ---------------
 A :156...166        ( 2.00    -0.3556)  ( 2.00    -0.3490)  ( 2.00    -0.3489)  ( 2.00    -0.3488)
                     ( 2.00    -0.3427)  ( 2.00    -0.3408)  ( 2.00    -0.3111)  ( 2.00    -0.3065)
                     ( 2.00    -0.2976)  ( 2.00    -0.2924)  ( 0.00    -0.0474)

 CYCLE   13
  SDIIS (wt  1.000):  0.0000  0.0001  0.0002 -0.0010 -0.0021 -0.0094 -0.0206  0.0120  0.1938  0.8270
  DIIS coefficients:  0.0000  0.0001  0.0002 -0.0010 -0.0021 -0.0094 -0.0206  0.0120  0.1938  0.8270
 SCF Error: norm([F,P])=      0.000220902874, max([F,P])=      0.000050993440
 orbitals (Q,E):
 ---------------
 A :156...166        ( 2.00    -0.3556)  ( 2.00    -0.3490)  ( 2.00    -0.3489)  ( 2.00    -0.3488)
                     ( 2.00    -0.3427)  ( 2.00    -0.3408)  ( 2.00    -0.3111)  ( 2.00    -0.3065)
                     ( 2.00    -0.2976)  ( 2.00    -0.2924)  ( 0.00    -0.0474)

 CYCLE   14
  SDIIS (wt  1.000):  0.0002  0.0001  0.0003 -0.0002 -0.0030 -0.0135 -0.0262  0.0483  0.4335  0.5606
  DIIS coefficients:  0.0002  0.0001  0.0003 -0.0002 -0.0030 -0.0135 -0.0262  0.0483  0.4335  0.5606
 SCF Error: norm([F,P])=      0.000108973762, max([F,P])=      0.000014227857
 orbitals (Q,E):
 ---------------
 A :156...166        ( 2.00    -0.3556)  ( 2.00    -0.3490)  ( 2.00    -0.3489)  ( 2.00    -0.3488)
                     ( 2.00    -0.3427)  ( 2.00    -0.3408)  ( 2.00    -0.3111)  ( 2.00    -0.3065)
                     ( 2.00    -0.2976)  ( 2.00    -0.2924)  ( 0.00    -0.0474)

 CYCLE   15
  SDIIS (wt  1.000): -0.0000  0.0002  0.0005  0.0013 -0.0010 -0.0112 -0.0182 -0.0033  0.1449  0.8868
  DIIS coefficients: -0.0000  0.0002  0.0005  0.0013 -0.0010 -0.0112 -0.0182 -0.0033  0.1449  0.8868
 SCF Error: norm([F,P])=      0.000031120266, max([F,P])=      0.000007322250
 orbitals (Q,E):
 ---------------
 A :156...166        ( 2.00    -0.3556)  ( 2.00    -0.3490)  ( 2.00    -0.3489)  ( 2.00    -0.3488)
                     ( 2.00    -0.3427)  ( 2.00    -0.3408)  ( 2.00    -0.3111)  ( 2.00    -0.3065)
                     ( 2.00    -0.2976)  ( 2.00    -0.2924)  ( 0.00    -0.0474)

 CYCLE   16
  SDIIS (wt  1.000):  0.0001  0.0002  0.0006  0.0012  0.0010 -0.0140 -0.0652 -0.0480  0.3494  0.7748
  DIIS coefficients:  0.0001  0.0002  0.0006  0.0012  0.0010 -0.0140 -0.0652 -0.0480  0.3494  0.7748
 SCF Error: norm([F,P])=      0.000016904003, max([F,P])=      0.000003976633
 orbitals (Q,E):
 ---------------
 A :156...166        ( 2.00    -0.3556)  ( 2.00    -0.3490)  ( 2.00    -0.3489)  ( 2.00    -0.3488)
                     ( 2.00    -0.3427)  ( 2.00    -0.3408)  ( 2.00    -0.3111)  ( 2.00    -0.3065)
                     ( 2.00    -0.2976)  ( 2.00    -0.2924)  ( 0.00    -0.0474)

 CYCLE   17
  SDIIS (wt  1.000):  0.0000  0.0002  0.0010  0.0004 -0.0074 -0.0273 -0.0368  0.0003  0.2910  0.7785
  DIIS coefficients:  0.0000  0.0002  0.0010  0.0004 -0.0074 -0.0273 -0.0368  0.0003  0.2910  0.7785
 SCF Error: norm([F,P])=      0.000007955093, max([F,P])=      0.000002085657
 orbitals (Q,E):
 ---------------
 A :156...166        ( 2.00    -0.3556)  ( 2.00    -0.3490)  ( 2.00    -0.3489)  ( 2.00    -0.3488)
                     ( 2.00    -0.3427)  ( 2.00    -0.3408)  ( 2.00    -0.3111)  ( 2.00    -0.3065)
                     ( 2.00    -0.2976)  ( 2.00    -0.2924)  ( 0.00    -0.0474)

 CYCLE   18
  SDIIS (wt  1.000):  0.0000  0.0004  0.0007  0.0004 -0.0012 -0.0133 -0.0828 -0.0074  0.2850  0.8182
  DIIS coefficients:  0.0000  0.0004  0.0007  0.0004 -0.0012 -0.0133 -0.0828 -0.0074  0.2850  0.8182
 SCF Error: norm([F,P])=      0.000003846341, max([F,P])=      0.000001001123
 orbitals (Q,E):
 ---------------
 A :156...166        ( 2.00    -0.3556)  ( 2.00    -0.3490)  ( 2.00    -0.3489)  ( 2.00    -0.3488)
                     ( 2.00    -0.3427)  ( 2.00    -0.3408)  ( 2.00    -0.3111)  ( 2.00    -0.3065)
                     ( 2.00    -0.2976)  ( 2.00    -0.2924)  ( 0.00    -0.0474)

 CYCLE   19
  SDIIS (wt  1.000): -0.0002 -0.0005  0.0014  0.0072  0.0096 -0.0091 -0.0790 -0.1271  0.1087  1.0890
  DIIS coefficients: -0.0002 -0.0005  0.0014  0.0072  0.0096 -0.0091 -0.0790 -0.1271  0.1087  1.0890
 SCF Error: norm([F,P])=      0.000001500286, max([F,P])=      0.000000395879
 orbitals (Q,E):
 ---------------
 A :156...166        ( 2.00    -0.3556)  ( 2.00    -0.3490)  ( 2.00    -0.3489)  ( 2.00    -0.3488)
                     ( 2.00    -0.3427)  ( 2.00    -0.3408)  ( 2.00    -0.3111)  ( 2.00    -0.3065)
                     ( 2.00    -0.2976)  ( 2.00    -0.2924)  ( 0.00    -0.0474)

 SCF CONVERGED
 cosmo_calcen: 0.5 (esolb+esolc) (Hartrees) =   -0.057662

 Solvation energy (screening term,uncorrected) =    -36.183621 kcal/mol

 Solvation energy (dispersion and cavitation terms) =      2.602064 kcal/mol
 Solvation Energy Contributions (Hartrees)
          esola   esolb+esolc
     0.05766226   -0.11532453
 esol last cycle   -0.05766226

 CYCLE   20
1
 ***************************************************************************************************



                                                *******************
                                                *  R E S U L T S  *
                                                *******************
  
  
 Hartree-Fock exchange energy:   -160.204084178458     
 *** Using EXACT density in Focky


 *** Use of untested dispersion parameters detected in GrimmeDispersion ***


  SDIIS (wt  1.000): -0.0001 -0.0000 -0.0005  0.0007  0.0056 -0.0048 -0.0350 -0.0142  0.1299  0.9184
  DIIS coefficients: -0.0001 -0.0000 -0.0005  0.0007  0.0056 -0.0048 -0.0350 -0.0142  0.1299  0.9184
 SCF Error: norm([F,P])=      0.000000458407, max([F,P])=      0.000000079319

 Scaled ZORA Orbital Energies, per Irrep and Spin:
 =================================================
                        Occup              E (au)              E (eV)       Diff (eV) with prev. cycle
                        -----      --------------------        ------       --------------------------
 A
             156        2.000     -0.35557204593227E+00        -9.676               1.49E-07
             157        2.000     -0.34898234923971E+00        -9.496               2.11E-07
             158        2.000     -0.34894315394717E+00        -9.495               2.91E-07
             159        2.000     -0.34881924519496E+00        -9.492               3.01E-07
             160        2.000     -0.34267519320697E+00        -9.325              -4.51E-07
             161        2.000     -0.34081402285946E+00        -9.274               1.36E-07
             162        2.000     -0.31107625138991E+00        -8.465               3.94E-07
             163        2.000     -0.30652538930379E+00        -8.341               4.06E-07
             164        2.000     -0.29758593492089E+00        -8.098               4.64E-07
             165        2.000     -0.29241625611530E+00        -7.957               5.44E-07
             166        0.000     -0.47380234068887E-01        -1.289
             167        0.000     -0.47003775068139E-01        -1.279
             168        0.000     -0.46703258625666E-01        -1.271
             169        0.000     -0.42989919771777E-01        -1.170
             170        0.000     -0.35293757284112E-01        -0.960
             171        0.000     -0.27552209724808E-01        -0.750
             172        0.000     -0.24794729091803E-01        -0.675
             173        0.000     -0.23496992617256E-01        -0.639
             174        0.000      0.73934397326463E-02         0.201
             175        0.000      0.78775671730680E-02         0.214
  
 HOMO :      165 A                -0.29241625611530E+00
 LUMO :      166 A                -0.47380234068887E-01
  
 cosmo_calcen: 0.5 (esolb+esolc) (Hartrees) =   -0.057662

 Solvation energy (screening term,uncorrected) =    -36.183626 kcal/mol

 Solvation energy (dispersion and cavitation terms) =      2.602064 kcal/mol
 Solvation Energy Contributions (Hartrees)
          esola   esolb+esolc
     0.05766227   -0.11532455
 esol last cycle   -0.05766227


 All Electron Calculation, thus no Orbital Energies of the Core Orbitals are calculated


 Fit test: (difference of exact and fit density, squared integrated, result summed over spins)
         Sum-of-Fragments:                             0.00000785887416
         Orthogonalized Fragments:                     0.00351729459181
         SCF:                                          0.00417249675350



 ==========================
 Electron Density at Nuclei
 ==========================
  
 The electron density is calculated at points on a small sphere around the center of a nucleus.
 The printed electron density is the average electron density on these points.
 The radius of the sphere is the printed approximate finite nuclear radius.
 Note: ZORA-4 density is used, which includes small component density

         Atom        Nuclear Radius (Angstrom)             Electron Density (a.u.)
         ----        -------------------------             -----------------------
     1)   U                 0.0000742428                          4174085.05439
     2)   O                 0.0000345546                              313.80641
     3)   O                 0.0000345546                              313.80642
     4)   N                 0.0000333706                              205.66652
     5)   C                 0.0000320678                              126.82276
     6)   H                 0.0000181514                                0.49307
     7)   C                 0.0000320678                              126.76344
     8)   H                 0.0000181514                                0.49210
     9)   C                 0.0000320678                              126.81159
    10)   H                 0.0000181514                                0.49161
    11)   C                 0.0000320678                              126.75413
    12)   C                 0.0000320678                              126.76802
    13)   H                 0.0000181514                                0.49264
    14)   C                 0.0000320678                              126.76801
    15)   H                 0.0000181514                                0.49264
    16)   C                 0.0000320678                              126.75414
    17)   C                 0.0000320678                              126.81158
    18)   H                 0.0000181514                                0.49161
    19)   C                 0.0000320678                              126.76345
    20)   H                 0.0000181514                                0.49210
    21)   C                 0.0000320678                              126.82276
    22)   H                 0.0000181514                                0.49307
    23)   N                 0.0000333706                              205.66652
    24)   C                 0.0000320678                              126.74827
    25)   C                 0.0000320678                              126.74827
    26)   Cl                0.0000426624                             3311.15306
    27)   Cl                0.0000426624                             3311.15309
    28)   N                 0.0000333706                              205.73387
    29)   C                 0.0000320678                              126.80681
    30)   H                 0.0000181514                                0.49725
    31)   C                 0.0000320678                              126.76328
    32)   H                 0.0000181514                                0.49247
    33)   C                 0.0000320678                              126.80354
    34)   H                 0.0000181514                                0.49214
    35)   C                 0.0000320678                              126.75305
    36)   C                 0.0000320678                              126.76524
    37)   H                 0.0000181514                                0.49296
    38)   C                 0.0000320678                              126.76524
    39)   H                 0.0000181514                                0.49296
    40)   C                 0.0000320678                              126.75306
    41)   C                 0.0000320678                              126.80353
    42)   H                 0.0000181514                                0.49214
    43)   C                 0.0000320678                              126.76328
    44)   H                 0.0000181514                                0.49247
    45)   C                 0.0000320678                              126.80681
    46)   H                 0.0000181514                                0.49725
    47)   N                 0.0000333706                              205.73387
    48)   C                 0.0000320678                              126.75041
    49)   C                 0.0000320678                              126.75041



 =======================================
 M U L L I K E N   P O P U L A T I O N S
 =======================================
  
 The survey below gives for each atom:
 a) the total charge (Z minus electrons)
 b) the net spin polarization (nr of electrons spin-A minus spin-B)
 c) for each spin the atomic electron valence density (integrated) per L-value.

 Atom              Charge    Spin density          S         P         D         F
 ----              ------    ------------       ------    ------    ------    ------
 1 U               2.0928                      12.0723   29.7205   31.6005   16.5139
 2 O              -0.6873                       3.8897    4.7415    0.0502    0.0058
 3 O              -0.6873                       3.8897    4.7415    0.0502    0.0058
 4 N              -0.4962                       3.5163    3.9043    0.0697    0.0058
 5 C               0.4465                       3.0099    2.4519    0.0852    0.0065
 6 H              -0.1451                       1.0501    0.0896    0.0054    0.0000
 7 C               0.1500                       3.0692    2.7157    0.0600    0.0051
 8 H              -0.1643                       1.0927    0.0668    0.0049    0.0000
 9 C               0.2708                       3.0573    2.6033    0.0636    0.0051
 10 H             -0.1622                       1.0889    0.0683    0.0050    0.0000
 11 C             -0.0018                       3.0915    2.8237    0.0803    0.0064
 12 C              0.2042                       3.0512    2.6771    0.0625    0.0050
 13 H             -0.1642                       1.0893    0.0698    0.0051    0.0000
 14 C              0.2042                       3.0512    2.6771    0.0625    0.0050
 15 H             -0.1642                       1.0893    0.0698    0.0051    0.0000
 16 C             -0.0018                       3.0915    2.8237    0.0803    0.0064
 17 C              0.2708                       3.0573    2.6033    0.0636    0.0051
 18 H             -0.1622                       1.0889    0.0683    0.0050    0.0000
 19 C              0.1500                       3.0692    2.7157    0.0600    0.0051
 20 H             -0.1643                       1.0927    0.0668    0.0049    0.0000
 21 C              0.4465                       3.0099    2.4519    0.0852    0.0065
 22 H             -0.1451                       1.0501    0.0896    0.0054    0.0000
 23 N             -0.4963                       3.5163    3.9044    0.0697    0.0058
 24 C              0.1880                       3.0639    2.6407    0.0997    0.0077
 25 C              0.1880                       3.0639    2.6407    0.0997    0.0077
 26 Cl            -0.5991                       5.9715   11.6082    0.0149    0.0045
 27 Cl            -0.5991                       5.9715   11.6082    0.0149    0.0045
 28 N             -0.4271                       3.5113    3.8380    0.0719    0.0059
 29 C              0.4259                       3.0087    2.4725    0.0863    0.0066
 30 H             -0.1509                       1.0715    0.0741    0.0053    0.0000
 31 C              0.1449                       3.0684    2.7214    0.0603    0.0051
 32 H             -0.1639                       1.0922    0.0668    0.0049    0.0000
 33 C              0.2586                       3.0556    2.6174    0.0634    0.0050
 34 H             -0.1647                       1.0914    0.0684    0.0050    0.0000
 35 C             -0.0087                       3.0900    2.8319    0.0804    0.0064
 36 C              0.1982                       3.0521    2.6823    0.0625    0.0050
[...]
     1: 129a       -> 168a          0.0021
     1: 164a       -> 168a          0.0020
     1: 160a       -> 173a          0.0017
     1: 157a       -> 171a          0.0016
     1: 156a       -> 167a          0.0016
     1: 157a       -> 173a          0.0014
     1: 147a       -> 180a          0.0012
     1: 164a       -> 171a          0.0010
     1: 151a       -> 168a          0.0007
     1: 147a       -> 179a          0.0006


     2: 165a       -> 173a          0.5972
     2: 163a       -> 172a          0.1571
     2: 163a       -> 166a          0.0302
     2: 163a       -> 177a          0.0256
     2: 154a       -> 177a          0.0189
     2: 154a       -> 172a          0.0170
     2: 152a       -> 180a          0.0165
     2: 165a       -> 171a          0.0152
     2: 145a       -> 195a          0.0104
     2: 158a       -> 177a          0.0084
     2: 165a       -> 180a          0.0072
     2: 145a       -> 180a          0.0063
     2: 152a       -> 195a          0.0054
     2: 154a       -> 166a          0.0053
     2: 159a       -> 180a          0.0049
     2: 156a       -> 180a          0.0047
     2: 158a       -> 172a          0.0047
     2: 153a       -> 177a          0.0040
     2: 165a       -> 168a          0.0038
     2: 145a       -> 194a          0.0037


     3: 164a       -> 171a          0.5772
     3: 162a       -> 170a          0.1952
     3: 162a       -> 176a          0.0351
     3: 153a       -> 170a          0.0302
     3: 151a       -> 179a          0.0269
     3: 153a       -> 176a          0.0224
     3: 164a       -> 173a          0.0132
     3: 146a       -> 194a          0.0105
     3: 164a       -> 179a          0.0096
     3: 164a       -> 168a          0.0079
     3: 164a       -> 194a          0.0065
     3: 154a       -> 170a          0.0058
     3: 154a       -> 176a          0.0051
     3: 151a       -> 194a          0.0046
     3: 146a       -> 179a          0.0044
     3: 164a       -> 190a          0.0035
     3: 130a       -> 204a          0.0026
     3: 146a       -> 195a          0.0019
     3: 147a       -> 194a          0.0019
     3: 146a       -> 190a          0.0017


     4: 147a       -> 169a          0.3943
     4: 160a       -> 169a          0.3050
     4: 157a       -> 169a          0.2192
     4: 142a       -> 169a          0.0215
     4: 138a       -> 169a          0.0140
     4: 146a       -> 169a          0.0134
     4: 101a       -> 169a          0.0072
     4: 147a       -> 170a          0.0037
     4: 160a       -> 170a          0.0028
     4: 157a       -> 170a          0.0021
     4: 129a       -> 169a          0.0020
     4: 164a       -> 169a          0.0016
     4: 156a       -> 166a          0.0016
     4: 155a       -> 167a          0.0009
     4: 147a       -> 176a          0.0008
     4: 151a       -> 169a          0.0006
     4: 160a       -> 176a          0.0005
     4: 159a       -> 166a          0.0004
     4: 122a       -> 169a          0.0004
     4: 118a       -> 169a          0.0004


     5: 147a       -> 167a          0.3882
     5: 160a       -> 167a          0.3053
     5: 157a       -> 167a          0.2350
     5: 142a       -> 167a          0.0216
     5: 138a       -> 167a          0.0151
     5: 146a       -> 167a          0.0121
     5: 101a       -> 167a          0.0064
     5: 156a       -> 168a          0.0022
     5: 164a       -> 167a          0.0019
     5: 129a       -> 167a          0.0017
     5: 155a       -> 169a          0.0009
     5: 151a       -> 167a          0.0007
     5: 159a       -> 168a          0.0005
     5: 160a       -> 197a          0.0005
     5: 147a       -> 197a          0.0004
     5: 122a       -> 167a          0.0004
     5: 165a       -> 173a          0.0004
     5: 118a       -> 167a          0.0003
     5: 144a       -> 169a          0.0003
     5: 141a       -> 169a          0.0002


     6: 147a       -> 166a          0.3363
     6: 160a       -> 166a          0.2900
     6: 157a       -> 166a          0.2126
     6: 147a       -> 172a          0.0433
     6: 160a       -> 172a          0.0246
     6: 157a       -> 172a          0.0236
     6: 142a       -> 166a          0.0179
     6: 138a       -> 166a          0.0121
     6: 146a       -> 166a          0.0110
     6: 101a       -> 166a          0.0057
     6: 142a       -> 172a          0.0026
     6: 156a       -> 169a          0.0019
     6: 138a       -> 172a          0.0016
     6: 164a       -> 166a          0.0015
     6: 129a       -> 166a          0.0015
     6: 146a       -> 172a          0.0014
     6: 147a       -> 177a          0.0012
     6: 155a       -> 168a          0.0009
     6: 101a       -> 172a          0.0008
     6: 157a       -> 177a          0.0006


     7: 164a       -> 170a          0.7968
     7: 153a       -> 171a          0.0500
     7: 153a       -> 179a          0.0230
     7: 162a       -> 171a          0.0222
     7: 164a       -> 169a          0.0158
     7: 146a       -> 170a          0.0151
     7: 164a       -> 176a          0.0112
     7: 154a       -> 171a          0.0111
     7: 146a       -> 176a          0.0077
     7: 151a       -> 170a          0.0059
     7: 154a       -> 179a          0.0048
     7: 151a       -> 204a          0.0030
     7: 138a       -> 170a          0.0024
     7: 153a       -> 168a          0.0020
     7: 164a       -> 204a          0.0019
     7: 162a       -> 194a          0.0015
     7: 130a       -> 194a          0.0014
     7: 147a       -> 170a          0.0014
     7: 147a       -> 176a          0.0013
     7: 130a       -> 171a          0.0011


     8: 165a       -> 172a          0.5359
     8: 165a       -> 166a          0.2552
     8: 154a       -> 173a          0.0428
     8: 165a       -> 177a          0.0213
     8: 158a       -> 173a          0.0197
     8: 154a       -> 180a          0.0189
     8: 163a       -> 173a          0.0162
     8: 145a       -> 172a          0.0139
     8: 153a       -> 173a          0.0090
     8: 145a       -> 177a          0.0087
     8: 152a       -> 172a          0.0068
     8: 158a       -> 180a          0.0059
     8: 145a       -> 166a          0.0057
     8: 153a       -> 180a          0.0041
     8: 163a       -> 180a          0.0020
     8: 152a       -> 207a          0.0016
     8: 134a       -> 195a          0.0016
     8: 163a       -> 195a          0.0013
     8: 154a       -> 171a          0.0013
     8: 156a       -> 166a          0.0013


     9: 162a       -> 170a          0.6525
     9: 164a       -> 171a          0.2342
     9: 151a       -> 179a          0.0299
     9: 151a       -> 171a          0.0216
     9: 162a       -> 169a          0.0096
     9: 164a       -> 168a          0.0054
     9: 164a       -> 194a          0.0053
     9: 164a       -> 173a          0.0051
     9: 164a       -> 179a          0.0039
     9: 146a       -> 179a          0.0031
     9: 146a       -> 171a          0.0028
     9: 153a       -> 170a          0.0028
     9: 164a       -> 190a          0.0020
     9: 146a       -> 194a          0.0018
     9: 151a       -> 168a          0.0015
     9: 151a       -> 194a          0.0013
     9: 151a       -> 190a          0.0008
     9: 158a       -> 170a          0.0008
     9: 163a       -> 170a          0.0008
     9: 164a       -> 195a          0.0006


    10: 163a       -> 172a          0.4962
    10: 165a       -> 173a          0.2212
    10: 163a       -> 166a          0.1703
    10: 152a       -> 180a          0.0289
    10: 152a       -> 173a          0.0111
    10: 145a       -> 173a          0.0064
    10: 156a       -> 173a          0.0059
    10: 165a       -> 171a          0.0059
    10: 165a       -> 180a          0.0054
    10: 159a       -> 173a          0.0053
    10: 165a       -> 195a          0.0045
    10: 154a       -> 172a          0.0037
    10: 165a       -> 168a          0.0024
    10: 159a       -> 180a          0.0023
    10: 165a       -> 194a          0.0022
    10: 145a       -> 180a          0.0021
    10: 165a       -> 190a          0.0019
    10: 145a       -> 195a          0.0019
    10: 156a       -> 180a          0.0016
    10: 152a       -> 168a          0.0010


    11: 162a       -> 171a          0.7427
    11: 164a       -> 176a          0.0763
    11: 164a       -> 170a          0.0476
    11: 151a       -> 176a          0.0398
    11: 162a       -> 168a          0.0224
    11: 151a       -> 170a          0.0197
    11: 162a       -> 173a          0.0155
    11: 153a       -> 171a          0.0065
    11: 146a       -> 176a          0.0053
    11: 162a       -> 194a          0.0032
    11: 154a       -> 171a          0.0021
    11: 153a       -> 179a          0.0020
    11: 162a       -> 195a          0.0012
    11: 151a       -> 169a          0.0010
    11: 122a       -> 170a          0.0009
    11: 163a       -> 171a          0.0009
    11: 147a       -> 176a          0.0008
    11: 158a       -> 171a          0.0008
    11: 146a       -> 170a          0.0007
    11: 162a       -> 231a          0.0006


    12: 163a       -> 173a          0.7266
    12: 165a       -> 177a          0.0848
    12: 165a       -> 172a          0.0499
    12: 152a       -> 177a          0.0320
    12: 163a       -> 171a          0.0203
    12: 163a       -> 168a          0.0108
    12: 154a       -> 173a          0.0086
    12: 158a       -> 173a          0.0086
    12: 165a       -> 174a          0.0069
    12: 165a       -> 166a          0.0065
    12: 145a       -> 177a          0.0052
    12: 152a       -> 172a          0.0051
    12: 163a       -> 195a          0.0046
    12: 152a       -> 166a          0.0036
    12: 159a       -> 177a          0.0033
    12: 156a       -> 177a          0.0030
    12: 153a       -> 173a          0.0018
    12: 152a       -> 174a          0.0016
    12: 154a       -> 180a          0.0010
    12: 123a       -> 172a          0.0010


    13: 165a       -> 177a          0.1917
    13: 152a       -> 172a          0.1739
    13: 163a       -> 180a          0.1158
    13: 165a       -> 172a          0.0724
    13: 154a       -> 173a          0.0688
    13: 163a       -> 173a          0.0573
    13: 159a       -> 172a          0.0406
    13: 152a       -> 166a          0.0369
    13: 156a       -> 172a          0.0355
    13: 158a       -> 173a          0.0249
    13: 159a       -> 166a          0.0222
    13: 163a       -> 168a          0.0203
    13: 153a       -> 173a          0.0147
    13: 165a       -> 174a          0.0146
    13: 156a       -> 166a          0.0115
    13: 154a       -> 180a          0.0103
    13: 165a       -> 166a          0.0102
    13: 145a       -> 177a          0.0045
    13: 163a       -> 195a          0.0040
    13: 123a       -> 172a          0.0039


    14: 151a       -> 170a          0.3242
    14: 164a       -> 176a          0.2282
    14: 162a       -> 179a          0.1299
    14: 153a       -> 171a          0.0986
    14: 164a       -> 170a          0.0658
    14: 162a       -> 171a          0.0240
    14: 154a       -> 171a          0.0205
    14: 153a       -> 179a          0.0149
    14: 162a       -> 168a          0.0133
    14: 162a       -> 194a          0.0069
    14: 164a       -> 204a          0.0052
    14: 122a       -> 170a          0.0049
    14: 146a       -> 176a          0.0040
    14: 151a       -> 169a          0.0039
    14: 153a       -> 168a          0.0037
    14: 122a       -> 204a          0.0037
    14: 146a       -> 170a          0.0030
    14: 154a       -> 179a          0.0027
    14: 162a       -> 190a          0.0022
    14: 164a       -> 169a          0.0020


    15: 165a       -> 167a          0.4637
    15: 156a       -> 167a          0.3549
    15: 161a       -> 166a          0.0659
    15: 150a       -> 167a          0.0335
    15: 152a       -> 167a          0.0287
    15: 140a       -> 167a          0.0186
    15: 139a       -> 167a          0.0070
    15: 159a       -> 167a          0.0044
    15: 160a       -> 168a          0.0040
    15: 149a       -> 166a          0.0024
    15: 148a       -> 166a          0.0021
    15: 160a       -> 173a          0.0020
    15: 100a       -> 167a          0.0012
    15: 161a       -> 196a          0.0010
    15: 155a       -> 172a          0.0009
    15: 148a       -> 196a          0.0009
    15:  87a       -> 167a          0.0007
    15: 148a       -> 172a          0.0005
    15: 156a       -> 175a          0.0004
    15: 160a       -> 180a          0.0004


    16: 165a       -> 168a          0.6466
    16: 156a       -> 168a          0.1807
    16: 165a       -> 180a          0.0324
    16: 152a       -> 168a          0.0215
    16: 150a       -> 168a          0.0206
    16: 154a       -> 172a          0.0153
    16: 140a       -> 168a          0.0120
    16: 145a       -> 173a          0.0082
    16: 158a       -> 172a          0.0065
    16: 158a       -> 166a          0.0054
    16: 165a       -> 173a          0.0053
    16: 154a       -> 166a          0.0045
    16: 139a       -> 168a          0.0043
    16: 153a       -> 172a          0.0032
    16: 145a       -> 168a          0.0031
    16: 165a       -> 171a          0.0030
    16: 165a       -> 195a          0.0026
    16: 160a       -> 167a          0.0020
    16: 161a       -> 169a          0.0019
    16: 163a       -> 172a          0.0018
 

 All SINGLET-TRIPLET excitation energies 

 no.     E/a.u.        E/eV      f           tau/s        Symmetry
 ------------------------------------------------------------------
   1:     0.10105      2.74967    0.000                   A           
   2:     0.10209      2.77802    0.000                   A           
   3:     0.10327      2.81011    0.000                   A           
   4:     0.10552      2.87136    0.000                   A           
   5:     0.10942      2.97742    0.000                   A           
   6:     0.11145      3.03258    0.000                   A           
   7:     0.12785      3.47901    0.000                   A           
   8:     0.12936      3.52000    0.000                   A           
   9:     0.13571      3.69281    0.000                   A           
  10:     0.13659      3.71686    0.000                   A           
  11:     0.14851      4.04114    0.000                   A           
  12:     0.14893      4.05246    0.000                   A           
  13:     0.15553      4.23222    0.000                   A           
  14:     0.15647      4.25764    0.000                   A           
  15:     0.16234      4.41752    0.000                   A           
  16:     0.16251      4.42222    0.000                   A           

 tau: electric dipole radiative lifetime (in seconds)

 Unrelaxed approximate excited state dipole moments

 no.       E/eV     Excited state dipole moment (Debye)   Symmetry
 ------------------------------------------------------------------
   1:      2.74967     0.00002     0.00003     5.12944    A
   2:      2.77802     0.00004     0.00025     5.41329    A
   3:      2.81011    -0.00007     0.00005     5.70557    A
   4:      2.87136    -0.00016     0.00028     5.25725    A
   5:      2.97742    -0.00050     0.00082     4.61077    A
   6:      3.03258    -0.00127    -0.00069     5.06938    A
   7:      3.47901     0.00021    -0.00017     8.70938    A
   8:      3.52000     0.00006    -0.00012     2.04606    A
   9:      3.69281     0.00010     0.00009     5.98372    A
  10:      3.71686     0.00015    -0.00050     4.99345    A
  11:      4.04114    -0.00305     0.00004     5.19788    A
  12:      4.05246     0.00002     0.00223     5.99224    A
  13:      4.23222    -0.00095    -0.00328     5.97431    A
  14:      4.25764    -0.00230    -0.00005     5.13278    A
  15:      4.41752     0.01994     0.00156    -4.03072    A
  16:      4.42222     0.00267    -0.00137    -6.52960    A


 Normal termination of EXCITATION program part





 =======================================================================
 Electrostatic potential at the Nuclei due to electrons and other nuclei
 =======================================================================
  
         Atom                  Potential
         ----                  ---------
     1)   U                 803.36844448
     2)   O                  22.44943555
     3)   O                  22.44943580
     4)   N                  18.39567921
     5)   C                  14.74024968
     6)   H                   1.11198182
     7)   C                  14.74937360
     8)   H                   1.05990690
     9)   C                  14.72574534
    10)   H                   1.03661620
    11)   C                  14.72670550
    12)   C                  14.73540424
    13)   H                   1.04488632
    14)   C                  14.73540454
    15)   H                   1.04488658
    16)   C                  14.72670562
    17)   C                  14.72574608
    18)   H                   1.03661709
    19)   C                  14.74937423
    20)   H                   1.05990738
    21)   C                  14.74024983
    22)   H                   1.11198198
    23)   N                  18.39567933
    24)   C                  14.71420048
    25)   C                  14.71420062
    26)   Cl                 65.00274757
    27)   Cl                 65.00274755
    28)   N                  18.43620871
    29)   C                  14.76381433
    30)   H                   1.12097805
    31)   C                  14.77195525
    32)   H                   1.07615268
    33)   C                  14.75348291
    34)   H                   1.06022357
    35)   C                  14.75976952
    36)   C                  14.76314135
    37)   H                   1.06890208
    38)   C                  14.76314195
    39)   H                   1.06890282
    40)   C                  14.75976962
    41)   C                  14.75348327
    42)   H                   1.06022397
    43)   C                  14.77195587
    44)   H                   1.07615325
    45)   C                  14.76381457
    46)   H                   1.12097830
    47)   N                  18.43620890
    48)   C                  14.75576005
    49)   C                  14.75576009
 Mulliken charges used for AMS results%charges...


    =====================
     CALCULATION RESULTS
    =====================

Energy (hartree)           -17.85838942


--------------
Atomic charges
--------------
  Index   Atom    Charge
      1      U    2.0928
      2      O   -0.6873
      3      O   -0.6873
      4      N   -0.4962
      5      C    0.4465
      6      H   -0.1451
      7      C    0.1500
      8      H   -0.1643
      9      C    0.2708
     10      H   -0.1622
     11      C   -0.0018
     12      C    0.2042
     13      H   -0.1642
     14      C    0.2042
     15      H   -0.1642
     16      C   -0.0018
     17      C    0.2708
     18      H   -0.1622
     19      C    0.1500
     20      H   -0.1643
     21      C    0.4465
     22      H   -0.1451
     23      N   -0.4963
     24      C    0.1880
     25      C    0.1880
     26     Cl   -0.5991
     27     Cl   -0.5991
     28      N   -0.4271
     29      C    0.4259
     30      H   -0.1509
     31      C    0.1449
     32      H   -0.1639
     33      C    0.2586
     34      H   -0.1647
     35      C   -0.0087
     36      C    0.1982
     37      H   -0.1655
     38      C    0.1982
     39      H   -0.1655
     40      C   -0.0087
     41      C    0.2586
     42      H   -0.1647
     43      C    0.1449
     44      H   -0.1639
     45      C    0.4259
     46      H   -0.1509
     47      N   -0.4271
     48      C    0.1676
     49      C    0.1676


Dipole moment vector    (Debye):     0.00002949    0.00003414    5.56765120
              magnitude (Debye):     5.56765120


AMS application finished. Exiting.
NORMAL TERMINATION
     Total cpu time:  124728.05
  Total system time:    4837.25
 Total elapsed time:  129666.54
