

 Parallel Execution: Process Information
 ==============================================================================
 Rank   Node Name                              NodeID   MyNodeRank  NodeMaster
    0   u-0-8.local                               0          0          0
    1   u-0-8.local                               0          1         -1
    2   u-0-8.local                               0          2         -1
    3   u-0-8.local                               0          3         -1
    4   u-0-8.local                               1          0          1
    5   u-0-8.local                               1          1         -1
    6   u-0-8.local                               1          2         -1
    7   u-0-8.local                               1          3         -1
    8   u-0-8.local                               2          0          2
    9   u-0-8.local                               2          1         -1
   10   u-0-8.local                               2          2         -1
   11   u-0-8.local                               2          3         -1
   12   u-0-8.local                               3          0          3
   13   u-0-8.local                               3          1         -1
   14   u-0-8.local                               3          2         -1
   15   u-0-8.local                               3          3         -1
 ==============================================================================


May use up to 31228MB of RAM as shared memory on node 0
May use up to 31250MB of RAM as shared memory on node 1
May use up to 31250MB of RAM as shared memory on node 2
May use up to 31250MB of RAM as shared memory on node 3

 *******************************************************************************
 *                                                                             *
 *  --------------------------------                                           *
 *   Amsterdam Modeling Suite (AMS)              2021.106                      *
 *  --------------------------------                                           *
 *                                               r99350 2021-12-03             *
 *                                                                             *
 *                                                                             *
 *                              =================                              *
 *                              |               |                              *
 *                              |     A M S     |                              *
 *                              |               |                              *
 *                              =================                              *
 *                                                                             *
 *                                                                             *
 *   Online information and documentation:  https://www.scm.com/support/       *
 *   E-mail:  support@scm.com   info@scm.com                                   *
 *                                                                             *
 *   Scientific publications using AMS results must be properly referenced     *
 *   See the User Manuals (or the web site) for recommended citations          *
 *   The terms and conditions of the End User License Agreement apply to       *
 *   the use of AMS, https://www.scm.com/license-terms/                        *
 *                                                                             *
 **********************  x86_64_linux_intel / intelmpi  ************************
 
 Licensed to: Dr. Val?rie Vallet / Laboratoire PhLAM UMR 8523 / Villeneuve d'Ascq Cedex / FRANCE 2023-01-20 17:43:01
 SCM User ID: u10325
  
 AMS 2021.106  RunTime: Jan26-2023 00:29:15  ShM Nodes: 4  Procs: 16

 AMS jobname: abs-uo2_2cl_2phen.tddft-camb3lyp-COSMO.SO
 AMS jobid  : 303495096

 Start   directory: /home/vallet/Bent-Uranyl/uo2_2cl_2phen/uo2_2cl_2phen/bent/geom-pbe0-d3-gp/ams-absorption-emission/fullkernel/
 Results directory: /home/vallet/Bent-Uranyl/uo2_2cl_2phen/uo2_2cl_2phen/bent/geom-pbe0-d3-gp/ams-absorption-emission/fullkernel/abs-uo2_2cl_2phen.tddft-camb3lyp-COSMO.SO.results/
 Scratch directory: /state/partition2/vallet/923107.phlam-s-sakura/amstmp_abs-uo2_2cl_2phen.tddft-camb3lyp-COSMO.SO_kid0.303495096/


 Communication costs MPI_COMM_WORLD:     -1.647 usec per message,   0.0451 usec per 8-byte item
 Communication costs for intra-node:      0.191 usec per message,   0.0086 usec per 8-byte item

 RNG seed: -1730324742 -1394860572 318352112 1280753078 -1070697453 -1968446444 54136573 -159137230



                     *************************************************************************
                     *  ADF 2021.106  RunTime: Jan26-2023 00:29:16  ShM Nodes: 4  Procs: 16  *
                     *************************************************************************
  
       ****************************
       * SINGLE POINT CALCULATION *
       ****************************
 
--------
Geometry
--------
Formula: C24H16Cl2N4O2U
Atoms
  Index Symbol   x (angstrom)   y (angstrom)   z (angstrom)
      1      U     0.00000000     0.00000000     0.11721400       adf.R=1.86
      2      O     0.00000000     1.73393500     0.38139900       adf.R=1.52
      3      O     0.00000000    -1.73393500     0.38139900       adf.R=1.52
      4      N     1.36995000     0.00000000     2.42045900       adf.R=1.55
      5      C     2.68995700     0.00000000     2.42787200       adf.R=1.70
      6      H     3.16412600     0.00000000     1.45286600       adf.R=1.20
      7      C     3.44974600     0.00000000     3.60236300       adf.R=1.70
      8      H     4.52990700     0.00000000     3.53387300       adf.R=1.20
      9      C     2.80539200     0.00000000     4.80806300       adf.R=1.70
     10      H     3.35580900     0.00000000     5.74281800       adf.R=1.20
     11      C     1.40297800     0.00000000     4.83566000       adf.R=1.70
     12      C     0.67546800     0.00000000     6.06036300       adf.R=1.70
     13      H     1.23217300     0.00000000     6.99076100       adf.R=1.20
     14      C    -0.67546800     0.00000000     6.06036300       adf.R=1.70
     15      H    -1.23217300     0.00000000     6.99076100       adf.R=1.20
     16      C    -1.40297800     0.00000000     4.83566000       adf.R=1.70
     17      C    -2.80539200     0.00000000     4.80806300       adf.R=1.70
     18      H    -3.35580900     0.00000000     5.74281800       adf.R=1.20
     19      C    -3.44974600     0.00000000     3.60236300       adf.R=1.70
     20      H    -4.52990700     0.00000000     3.53387300       adf.R=1.20
     21      C    -2.68995700     0.00000000     2.42787200       adf.R=1.70
     22      H    -3.16412600     0.00000000     1.45286600       adf.R=1.20
     23      N    -1.36995000     0.00000000     2.42045900       adf.R=1.55
     24      C    -0.71848900     0.00000000     3.60199900       adf.R=1.70
     25      C     0.71848900     0.00000000     3.60199900       adf.R=1.70
     26     Cl     2.49785300     0.00000000    -0.79785000       adf.R=1.75
     27     Cl    -2.49785300     0.00000000    -0.79785000       adf.R=1.75
     28      N     0.00000000     1.35220700    -2.32154000       adf.R=1.55
     29      C     0.00000000     2.66693700    -2.31220300       adf.R=1.70
     30      H     0.00000000     3.13154600    -1.33352200       adf.R=1.20
     31      C     0.00000000     3.44120000    -3.47757100       adf.R=1.70
     32      H     0.00000000     4.52123900    -3.40245300       adf.R=1.20
     33      C     0.00000000     2.80836100    -4.69199800       adf.R=1.70
     34      H     0.00000000     3.37051700    -5.61982000       adf.R=1.20
     35      C     0.00000000     1.40666700    -4.73370800       adf.R=1.70
     36      C     0.00000000     0.67607700    -5.95812400       adf.R=1.70
     37      H     0.00000000     1.23036600    -6.89028800       adf.R=1.20
     38      C     0.00000000    -0.67607700    -5.95812400       adf.R=1.70
     39      H     0.00000000    -1.23036600    -6.89028800       adf.R=1.20
     40      C     0.00000000    -1.40666700    -4.73370800       adf.R=1.70
     41      C     0.00000000    -2.80836100    -4.69199800       adf.R=1.70
     42      H     0.00000000    -3.37051700    -5.61982000       adf.R=1.20
     43      C     0.00000000    -3.44120000    -3.47757100       adf.R=1.70
     44      H     0.00000000    -4.52123900    -3.40245300       adf.R=1.20
     45      C     0.00000000    -2.66693700    -2.31220300       adf.R=1.70
     46      H     0.00000000    -3.13154600    -1.33352200       adf.R=1.20
     47      N     0.00000000    -1.35220700    -2.32154000       adf.R=1.55
     48      C     0.00000000    -0.71778400    -3.50376300       adf.R=1.70
     49      C     0.00000000     0.71778400    -3.50376300       adf.R=1.70
 
Total System Charge             0.00000
Bonding info available!
 
 
----------------
ADF Engine Input
----------------
 
 Basis
 Type TZ2P
 Core None
 End
 AllPoints Yes
 XC
 libxc CAM-B3LYP
 End
 Relativity
 Level Spin-Orbit
 End
 Symmetry NOSYM
 Solvation
 Surf Delley
 Solv name=Water cav0=0.0 cav1=0.0067639
 Charged method=CONJ
 C-Mat POT
 SCF VAR ALL
 CSMRSP
 End
 Excitations
 Lowest 16
 NTO Yes
 Davidson
 End
 FullKernel Yes
 End
 

 Title: *** (NO TITLE) ***

 *** adf ***



 ===========================
 A T T A C H E D   F I L E S
 ===========================
  



 ===============================
 M O D E L   P A R A M E T E R S
 ===============================
  
 Range separated functional parameters:
 RANGESEP OMEGA=    0.330000 ALPHA=    0.190000 BETA=    0.460000 ERF-LONGRANGE 
                                                                                
   
 DENSITY FUNCTIONAL POTENTIAL (scf)

   *** Range Separated Functional ***

 Regions:
   LibXC version: 5. 1. 2
   Exchange-correlation  T T T T F F F T T F F F F F F F F F F F F
   HF parameter =   0.65000000
   LIBXC GAMMA=    0.330000 ALPHA=    0.650000 BETA=   -0.460000
   CAM version of B3LYP (Hybrid GGA)
[1] T. Yanai, D. P. Tew, and N. C. Handy, Chem. Phys. Lett. 393, 51 (2004)

 SPIN  (restricted / unrestr.)
    Molecule:                          Restricted                               
    Fragments:                         Restricted                               

 OTHER ASPECTS
    Relativistic Corrections:          Spin-Orbit (ZORA,MAPA)                  == Not Default ==

    Nuclear Charge Density Model:      Point Charge Nuclei                      
    Core Treatment:                    Frozen Orbital(s)                        

    Hyperfine or Zeeman Interaction:   ---                                      

 SOLVATION
-------------------------------------------

  The Delley construction of COSMO surface surface is calculated

       Division Level for Surface Triangles (NDIV)                  3
       Final Division Level for Triangles (NFDIV)                   1
       Radius of the Solvent (RSOL)                           1.93000 angstr
  Dielectric Constant (EPSL)                                 78.39000

       COSMO equation is solved iteratively-               conjugate-gradient

       Maximun of Iterations for Charges (NCIX)                  1000
       Criterion for Charge convergence (CCNV)                1.0E-08

  COSMO charges included variationally in SCF

       COSMO included at every SCF cycle

  Geometry-dependent empirical factor                         0.00000

  C-Matrix calculated in cspmtx

  In cspmtx, C-Matrix calculated using fitted potential

-------------------------------------------



 Fragment File(s)
 ----------------
 U:
         file : /home/vallet/Bent-Uranyl/uo2_2cl_2phen/uo2_2cl_2phen/bent/geom-pbe0-d3-gp/ams-absorption-emission/fullkernel/abs-uo2_2cl_2phen.tddft-camb3lyp-COSMO.SO.results/t21.6C1485AF.U
         jobid: 0
         title: Uranium (TZ2P, all electron)
 O:
         file : /home/vallet/Bent-Uranyl/uo2_2cl_2phen/uo2_2cl_2phen/bent/geom-pbe0-d3-gp/ams-absorption-emission/fullkernel/abs-uo2_2cl_2phen.tddft-camb3lyp-COSMO.SO.results/t21.1786ABF1.O
         jobid: 0
         title: Oxygen (TZ2P)
 N:
         file : /home/vallet/Bent-Uranyl/uo2_2cl_2phen/uo2_2cl_2phen/bent/geom-pbe0-d3-gp/ams-absorption-emission/fullkernel/abs-uo2_2cl_2phen.tddft-camb3lyp-COSMO.SO.results/t21.3C40D2C.N
         jobid: 0
         title: Nitrogen (TZ2P)
 C:
         file : /home/vallet/Bent-Uranyl/uo2_2cl_2phen/uo2_2cl_2phen/bent/geom-pbe0-d3-gp/ams-absorption-emission/fullkernel/abs-uo2_2cl_2phen.tddft-camb3lyp-COSMO.SO.results/t21.5D40A1EA.C
         jobid: 0
         title: Carbon (TZ2P)
 H:
         file : /home/vallet/Bent-Uranyl/uo2_2cl_2phen/uo2_2cl_2phen/bent/geom-pbe0-d3-gp/ams-absorption-emission/fullkernel/abs-uo2_2cl_2phen.tddft-camb3lyp-COSMO.SO.results/t21.49E308CA.H
         jobid: 0
         title: Hydrogen (TZ2P)
 Cl:
         file : /home/vallet/Bent-Uranyl/uo2_2cl_2phen/uo2_2cl_2phen/bent/geom-pbe0-d3-gp/ams-absorption-emission/fullkernel/abs-uo2_2cl_2phen.tddft-camb3lyp-COSMO.SO.results/t21.37D265EA.Cl
         jobid: 0
         title: Chlorine (TZ2P)



 ===============
 G E O M E T R Y  ***  3D  Molecule  ***
 ===============
  

 ATOMS
 =====                            X Y Z                    CHARGE                     RADIUS
                                (Angstrom)             Nucl     +Core       At.Mass (Angstrom)
                       --------------------------    ----------------       ------- ----------
    1  U               0.0000    0.0000    0.1172     92.00     92.00      238.0508    1.8600
    2  O               0.0000    1.7339    0.3814      8.00      8.00       15.9949    1.5200
    3  O               0.0000   -1.7339    0.3814      8.00      8.00       15.9949    1.5200
    4  N               1.3700    0.0000    2.4205      7.00      7.00       14.0031    1.5500
    5  C               2.6900    0.0000    2.4279      6.00      6.00       12.0000    1.7000
    6  H               3.1641    0.0000    1.4529      1.00      1.00        1.0078    1.2000
    7  C               3.4497    0.0000    3.6024      6.00      6.00       12.0000    1.7000
    8  H               4.5299    0.0000    3.5339      1.00      1.00        1.0078    1.2000
    9  C               2.8054    0.0000    4.8081      6.00      6.00       12.0000    1.7000
   10  H               3.3558    0.0000    5.7428      1.00      1.00        1.0078    1.2000
   11  C               1.4030    0.0000    4.8357      6.00      6.00       12.0000    1.7000
   12  C               0.6755    0.0000    6.0604      6.00      6.00       12.0000    1.7000
   13  H               1.2322    0.0000    6.9908      1.00      1.00        1.0078    1.2000
   14  C              -0.6755    0.0000    6.0604      6.00      6.00       12.0000    1.7000
   15  H              -1.2322    0.0000    6.9908      1.00      1.00        1.0078    1.2000
   16  C              -1.4030    0.0000    4.8357      6.00      6.00       12.0000    1.7000
   17  C              -2.8054    0.0000    4.8081      6.00      6.00       12.0000    1.7000
   18  H              -3.3558    0.0000    5.7428      1.00      1.00        1.0078    1.2000
   19  C              -3.4497    0.0000    3.6024      6.00      6.00       12.0000    1.7000
   20  H              -4.5299    0.0000    3.5339      1.00      1.00        1.0078    1.2000
   21  C              -2.6900    0.0000    2.4279      6.00      6.00       12.0000    1.7000
   22  H              -3.1641    0.0000    1.4529      1.00      1.00        1.0078    1.2000
   23  N              -1.3700    0.0000    2.4205      7.00      7.00       14.0031    1.5500
   24  C              -0.7185    0.0000    3.6020      6.00      6.00       12.0000    1.7000
   25  C               0.7185    0.0000    3.6020      6.00      6.00       12.0000    1.7000
   26  Cl              2.4979    0.0000   -0.7978     17.00     17.00       34.9689    1.7500
   27  Cl             -2.4979    0.0000   -0.7978     17.00     17.00       34.9689    1.7500
   28  N               0.0000    1.3522   -2.3215      7.00      7.00       14.0031    1.5500
   29  C               0.0000    2.6669   -2.3122      6.00      6.00       12.0000    1.7000
   30  H               0.0000    3.1315   -1.3335      1.00      1.00        1.0078    1.2000
   31  C               0.0000    3.4412   -3.4776      6.00      6.00       12.0000    1.7000
   32  H               0.0000    4.5212   -3.4025      1.00      1.00        1.0078    1.2000
   33  C               0.0000    2.8084   -4.6920      6.00      6.00       12.0000    1.7000
   34  H               0.0000    3.3705   -5.6198      1.00      1.00        1.0078    1.2000
   35  C               0.0000    1.4067   -4.7337      6.00      6.00       12.0000    1.7000
   36  C               0.0000    0.6761   -5.9581      6.00      6.00       12.0000    1.7000
   37  H               0.0000    1.2304   -6.8903      1.00      1.00        1.0078    1.2000
   38  C               0.0000   -0.6761   -5.9581      6.00      6.00       12.0000    1.7000
   39  H               0.0000   -1.2304   -6.8903      1.00      1.00        1.0078    1.2000
   40  C               0.0000   -1.4067   -4.7337      6.00      6.00       12.0000    1.7000
   41  C               0.0000   -2.8084   -4.6920      6.00      6.00       12.0000    1.7000
   42  H               0.0000   -3.3705   -5.6198      1.00      1.00        1.0078    1.2000
   43  C               0.0000   -3.4412   -3.4776      6.00      6.00       12.0000    1.7000
   44  H               0.0000   -4.5212   -3.4025      1.00      1.00        1.0078    1.2000
   45  C               0.0000   -2.6669   -2.3122      6.00      6.00       12.0000    1.7000
   46  H               0.0000   -3.1315   -1.3335      1.00      1.00        1.0078    1.2000
   47  N               0.0000   -1.3522   -2.3215      7.00      7.00       14.0031    1.5500
   48  C               0.0000   -0.7178   -3.5038      6.00      6.00       12.0000    1.7000
   49  C               0.0000    0.7178   -3.5038      6.00      6.00       12.0000    1.7000


 FRAGMENTS
 =========                                     Atoms in this Fragment     Cart. coord.s (Angstrom)
                                               -------------------------------------------------------
    1  U                                                 1  U            0.0000    0.0000    0.1172
    2  O                                                 2  O            0.0000    1.7339    0.3814
    3  O                                                 3  O            0.0000   -1.7339    0.3814
    4  N                                                 4  N            1.3700    0.0000    2.4205
    5  N                                                23  N           -1.3700    0.0000    2.4205
    6  N                                                28  N            0.0000    1.3522   -2.3215
    7  N                                                47  N            0.0000   -1.3522   -2.3215
    8  C                                                 5  C            2.6900    0.0000    2.4279
    9  C                                                 7  C            3.4497    0.0000    3.6024
   10  C                                                 9  C            2.8054    0.0000    4.8081
   11  C                                                11  C            1.4030    0.0000    4.8357
   12  C                                                12  C            0.6755    0.0000    6.0604
   13  C                                                14  C           -0.6755    0.0000    6.0604
   14  C                                                16  C           -1.4030    0.0000    4.8357
   15  C                                                17  C           -2.8054    0.0000    4.8081
   16  C                                                19  C           -3.4497    0.0000    3.6024
   17  C                                                21  C           -2.6900    0.0000    2.4279
   18  C                                                24  C           -0.7185    0.0000    3.6020
   19  C                                                25  C            0.7185    0.0000    3.6020
   20  C                                                29  C            0.0000    2.6669   -2.3122
   21  C                                                31  C            0.0000    3.4412   -3.4776
   22  C                                                33  C            0.0000    2.8084   -4.6920
   23  C                                                35  C            0.0000    1.4067   -4.7337
   24  C                                                36  C            0.0000    0.6761   -5.9581
   25  C                                                38  C            0.0000   -0.6761   -5.9581
   26  C                                                40  C            0.0000   -1.4067   -4.7337
   27  C                                                41  C            0.0000   -2.8084   -4.6920
   28  C                                                43  C            0.0000   -3.4412   -3.4776
   29  C                                                45  C            0.0000   -2.6669   -2.3122
   30  C                                                48  C            0.0000   -0.7178   -3.5038
   31  C                                                49  C            0.0000    0.7178   -3.5038
   32  H                                                 6  H            3.1641    0.0000    1.4529
   33  H                                                 8  H            4.5299    0.0000    3.5339
   34  H                                                10  H            3.3558    0.0000    5.7428
   35  H                                                13  H            1.2322    0.0000    6.9908
   36  H                                                15  H           -1.2322    0.0000    6.9908
   37  H                                                18  H           -3.3558    0.0000    5.7428
   38  H                                                20  H           -4.5299    0.0000    3.5339
   39  H                                                22  H           -3.1641    0.0000    1.4529
   40  H                                                30  H            0.0000    3.1315   -1.3335
   41  H                                                32  H            0.0000    4.5212   -3.4025
   42  H                                                34  H            0.0000    3.3705   -5.6198
   43  H                                                37  H            0.0000    1.2304   -6.8903
   44  H                                                39  H            0.0000   -1.2304   -6.8903
   45  H                                                42  H            0.0000   -3.3705   -5.6198
   46  H                                                44  H            0.0000   -4.5212   -3.4025
   47  H                                                46  H            0.0000   -3.1315   -1.3335
   48  Cl                                               26  Cl           2.4979    0.0000   -0.7978
   49  Cl                                               27  Cl          -2.4979    0.0000   -0.7978



 =====================================
 S Y M M E T R Y ,   E L E C T R O N S
 =====================================
  
 Symmetry: NOSYM

 Double Group Irreducible Representations (spinor symmetry)
 -----------------------------------------------------------
 A1/2

 Symmetry is NOT used when fitting density


 Configuration of Valence Electrons
 ==================================
 ( determined in the SCF procedure )

 Total:   330

 Net Charge: 0 (Nuclei minus Electrons)

 Aufbau principle for MO occupations will be applied through SCF cycle no.     150
 Thereafter, the program will assign electrons to MOs that are spatially
 similar to the occupied MOs in a "reference" cycle ("KeepOrbitals").
 The reference cycle is always the PREVIOUS cycle: it will evolve with
 the SCF procedure.
1
 ***************************************************************************************************



                                      ****************************************
                                      *  B U I L D : (Fragments, Functions)  *
                                      ****************************************
  

 Total nr. of (C)SFOs (summation over all irreps) :  1159

 Specify PRINT SFO in the input file to get a full list

 Nr. of SFOs for ir.rep.           A :  1159



 ================================
 (Slater-type)  F U N C T I O N S  ***  (Basis and Fit)  ***
 ================================
  

 Atom Type    1  (U)
 ==============

 Valence Basis Sets:  43
 -----------------------
   1 S 1060.000000
   1 S  245.000000
   1 S  108.800000
   2 S  134.900000
   2 S   47.200000
   3 S   60.000000
   3 S   25.900000
   4 S   15.800000
   4 S   11.100000
   5 S   10.450000
   5 S    7.250000
   6 S    5.000000
   6 S    3.300000
   7 S    2.350000
   7 S    1.550000
   7 S    1.020000
   2 P  245.000000
   2 P   85.500000
   2 P   44.200000
   3 P   25.100000
   3 P   18.100000
   4 P   17.900000
   4 P   12.300000
   5 P    8.650000
   5 P    6.000000
   6 P    4.450000
   6 P    3.000000
   6 P    2.100000
   3 D   33.250000
   3 D   22.050000
   4 D   15.250000
   4 D   10.550000
   5 D    7.250000
   5 D    4.650000
   6 D    2.900000
   6 D    1.600000
   6 D    0.880000
   4 F   17.450000
   4 F    9.600000
   5 F    5.800000
   5 F    3.000000
   5 F    1.390000
   7 P    1.550000

 Charge Fitting Sets (for the computation of the Coulomb Potential):  87
 -----------------------------------------------------------------------
   1 S 2120.000000
   1 S 1594.965000
   1 S 1199.960000
   1 S  902.780000
   1 S  679.200000
   1 S  510.990000
   1 S  384.440000
   1 S  289.230000
   1 S  217.600000
   1 S  129.260000
   2 S  142.240000
   2 S   95.100000
   3 S   93.370000
   3 S   66.470000
   4 S   62.580000
   4 S   46.380000
   5 S   42.820000
   5 S   32.660000
   6 S   29.850000
   6 S   23.270000
   7 S   21.150000
   7 S   16.770000
   8 S   15.210000
   8 S   12.230000
   9 S   11.070000
   9 S    9.010000
  10 S    8.150000
  10 S    6.700000
  11 S    6.070000
  11 S    5.030000
  12 S    4.550000
  12 S    3.810000
  12 S    3.180000
  13 S    2.880000
  13 S    2.420000
  13 S    2.040000
   2 P  153.000000
   3 P  127.690000
   4 P  104.620000
   5 P   85.360000
   6 P   69.720000
   7 P   57.130000
   7 P   40.980000
   8 P   33.710000
   8 P   24.670000
   9 P   20.380000
   9 P   15.180000
  10 P   12.590000
  10 P    9.510000
  11 P    7.920000
  11 P    6.060000
  12 P    5.070000
  12 P    3.920000
  13 P    3.290000
  13 P    2.570000
   3 D  130.850000
   4 D   91.890000
   5 D   65.340000
   6 D   47.080000
   7 D   34.350000
   8 D   25.360000
   9 D   18.910000
   9 D   12.740000
  10 D    9.600000
  10 D    6.590000
  11 D    5.010000
  11 D    3.500000
  12 D    2.680000
  12 D    1.900000
   4 F  118.400000
   5 F   72.780000
   6 F   45.920000
   7 F   29.630000
   8 F   19.500000
   9 F   13.050000
  10 F    8.870000
  10 F    5.510000
  11 F    3.800000
  11 F    2.410000
   5 G   53.800000
   6 G   31.220000
   7 G   18.640000
   8 G   11.410000
   9 G    7.140000
  10 G    4.550000
  11 G    2.950000
  11 G    1.760000

 Atom Type    2  (O)
 ==============

 Valence Basis Sets:  10
 -----------------------
   1 S    9.800000
   1 S    6.800000
   2 S    7.580000
   2 S    2.880000
   2 S    1.720000
   2 P    4.080000
   2 P    2.080000
   2 P    1.120000
   3 D    2.000000
   4 F    3.000000

 Charge Fitting Sets (for the computation of the Coulomb Potential):  22
 -----------------------------------------------------------------------
   1 S   19.600000
   2 S   22.600000
   2 S   15.680000
   2 S   10.890000
   2 S    7.560000
   3 S    7.690000
   3 S    5.650000
   3 S    4.150000
   3 S    3.050000
   3 S    2.240000
   2 P   12.860000
   2 P    7.680000
   3 P    6.780000
   3 P    4.390000
   3 P    2.840000
   3 D    8.800000
   3 D    5.580000
   3 D    3.530000
   3 D    2.240000
   4 F    6.200000
   4 F    3.700000
   5 G    4.500000

 Atom Type    3  (N)
 ==============

 Valence Basis Sets:  10
 -----------------------
   1 S    8.740000
   1 S    5.900000
   2 S    5.150000
   2 S    2.500000
   2 S    1.500000
   2 P    3.680000
   2 P    1.880000
   2 P    1.000000
   3 D    2.200000
   4 F    3.300000

 Charge Fitting Sets (for the computation of the Coulomb Potential):  22
 -----------------------------------------------------------------------
   1 S   17.480000
   2 S   20.150000
   2 S   13.990000
   2 S    9.710000
   2 S    6.740000
   3 S    6.860000
   3 S    5.040000
   3 S    3.700000
   3 S    2.720000
   3 S    2.000000
   2 P   11.320000
   2 P    6.730000
   3 P    5.920000
   3 P    3.820000
   3 P    2.460000
   3 D    8.100000
   3 D    5.080000
   3 D    3.190000
   3 D    2.000000
   4 F    5.800000
   4 F    3.600000
   5 G    4.500000

 Atom Type    4  (C)
 ==============

 Valence Basis Sets:  10
 -----------------------
   1 S    7.680000
   1 S    5.000000
   2 S    1.280000
   2 S    2.100000
   2 S    4.600000
   2 P    0.820000
   2 P    1.480000
   2 P    2.940000
   3 D    2.200000
   4 F    3.300000

 Charge Fitting Sets (for the computation of the Coulomb Potential):  22
 -----------------------------------------------------------------------
   1 S   15.360000
   2 S   17.530000
   2 S   12.070000
   2 S    8.310000
   2 S    5.730000
   3 S    5.780000
   3 S    4.220000
   3 S    3.080000
   3 S    2.250000
   3 S    1.640000
   2 P    9.880000
   2 P    5.800000
   3 P    5.050000
   3 P    3.230000
   3 P    2.060000
   3 D    7.200000
   3 D    4.400000
   3 D    2.690000
   3 D    1.640000
   4 F    5.400000
   4 F    3.550000
   5 G    4.500000

 Atom Type    5  (H)
 ==============

 Valence Basis Sets:   5
 -----------------------
   1 S    0.690000
   1 S    0.920000
   1 S    1.580000
   2 P    1.250000
   3 D    2.500000

 Charge Fitting Sets (for the computation of the Coulomb Potential):  11
 -----------------------------------------------------------------------
   1 S    3.160000
   1 S    2.090000
   1 S    1.380000
   2 S    1.500000
   2 P    4.000000
   2 P    2.650000
   2 P    1.750000
   3 D    4.000000
   3 D    2.500000
   4 F    3.000000
   5 G    4.000000

 Atom Type    6  (Cl)
 ==============

 Valence Basis Sets:  14
 -----------------------
   1 S   20.300000
   1 S   15.250000
   2 S    6.250000
   2 S    4.450000
   2 P    8.850000
   2 P    5.050000
   3 S    3.450000
   3 S    2.300000
   3 S    1.600000
   3 P    3.350000
   3 P    2.050000
   3 P    1.200000
   3 D    2.000000
   4 F    2.000000

 Charge Fitting Sets (for the computation of the Coulomb Potential):  30
 -----------------------------------------------------------------------
   1 S   40.600000
   1 S   24.830000
   2 S   28.080000
   2 S   19.200000
   3 S   19.250000
   3 S   13.970000
   3 S   10.130000
   4 S    9.710000
   4 S    7.320000
   4 S    5.510000
   5 S    5.170000
   5 S    4.000000
   5 S    3.100000
   5 S    2.400000
   2 P   29.150000
   3 P   21.740000
   4 P   16.160000
   4 P    9.600000
   5 P    7.180000
   5 P    4.480000
   5 P    2.800000
   3 D   21.950000
   4 D   15.750000
   4 D    9.040000
   5 D    6.550000
   5 D    3.960000
   5 D    2.400000
   4 F    5.000000
   4 F    3.000000
   5 G    3.500000


 BAS: List of all Elementary Cartesian Basis Functions
 =====================================================

 The numbering in the list below (to the right of the function characteristics) is referred
 to in print-outs of MO eigenvectors and Mulliken populations in the BAS representation
 (as contrasted to the SFO representation).

 Notes:
 1. The functions are characterized by a polynomial prefactor (powers of x,y,z and r) and
    an exponential decay factor alpha.
 2. Since the basis sets are specific for an atom TYPE, the individual functions occur on
    all atoms of that type.
 3. The word 'Core' in the left margin signals that it is a Core Function (CF) : not a
    degree of freedom in the valence set, but only used to ensure orthogonalization of
    the other valence basis functions on the frozen Core Orbitals.


 (power of) X  Y  Z  R     Alpha  on Atom
            ==========     =====     ==========

 U                                    1
                                  ---------------------------------------------------------------------------
            0  0  0  0  1060.000      1
            0  0  0  0   245.000      2
            0  0  0  0   108.800      3
            0  0  0  1   134.900      4
            0  0  0  1    47.200      5
            0  0  0  2    60.000      6
            0  0  0  2    25.900      7
            0  0  0  3    15.800      8
            0  0  0  3    11.100      9
            0  0  0  4    10.450     10
            0  0  0  4     7.250     11
            0  0  0  5     5.000     12
            0  0  0  5     3.300     13
            0  0  0  6     2.350     14
            0  0  0  6     1.550     15
            0  0  0  6     1.020     16
            1  0  0  0   245.000     17
            0  1  0  0   245.000     18
            0  0  1  0   245.000     19
            1  0  0  0    85.500     20
            0  1  0  0    85.500     21
            0  0  1  0    85.500     22
            1  0  0  0    44.200     23
            0  1  0  0    44.200     24
            0  0  1  0    44.200     25
            1  0  0  1    25.100     26
            0  1  0  1    25.100     27
            0  0  1  1    25.100     28
            1  0  0  1    18.100     29
            0  1  0  1    18.100     30
            0  0  1  1    18.100     31
            1  0  0  2    17.900     32
            0  1  0  2    17.900     33
            0  0  1  2    17.900     34
            1  0  0  2    12.300     35
            0  1  0  2    12.300     36
            0  0  1  2    12.300     37
            1  0  0  3     8.650     38
            0  1  0  3     8.650     39
            0  0  1  3     8.650     40
            1  0  0  3     6.000     41
            0  1  0  3     6.000     42
            0  0  1  3     6.000     43
            1  0  0  4     4.450     44
            0  1  0  4     4.450     45
            0  0  1  4     4.450     46
            1  0  0  4     3.000     47
            0  1  0  4     3.000     48
            0  0  1  4     3.000     49
            1  0  0  4     2.100     50
            0  1  0  4     2.100     51
            0  0  1  4     2.100     52
            2  0  0  0    33.250     53
            1  1  0  0    33.250     54
            1  0  1  0    33.250     55
            0  2  0  0    33.250     56
            0  1  1  0    33.250     57
            0  0  2  0    33.250     58
            2  0  0  0    22.050     59
            1  1  0  0    22.050     60
            1  0  1  0    22.050     61
            0  2  0  0    22.050     62
            0  1  1  0    22.050     63
            0  0  2  0    22.050     64
            2  0  0  1    15.250     65
            1  1  0  1    15.250     66
            1  0  1  1    15.250     67
            0  2  0  1    15.250     68
            0  1  1  1    15.250     69
            0  0  2  1    15.250     70
            2  0  0  1    10.550     71
            1  1  0  1    10.550     72
            1  0  1  1    10.550     73
            0  2  0  1    10.550     74
            0  1  1  1    10.550     75
            0  0  2  1    10.550     76
            2  0  0  2     7.250     77
            1  1  0  2     7.250     78
            1  0  1  2     7.250     79
            0  2  0  2     7.250     80
            0  1  1  2     7.250     81
            0  0  2  2     7.250     82
            2  0  0  2     4.650     83
            1  1  0  2     4.650     84
            1  0  1  2     4.650     85
            0  2  0  2     4.650     86
            0  1  1  2     4.650     87
            0  0  2  2     4.650     88
            2  0  0  3     2.900     89
            1  1  0  3     2.900     90
            1  0  1  3     2.900     91
            0  2  0  3     2.900     92
            0  1  1  3     2.900     93
            0  0  2  3     2.900     94
            2  0  0  3     1.600     95
            1  1  0  3     1.600     96
            1  0  1  3     1.600     97
            0  2  0  3     1.600     98
            0  1  1  3     1.600     99
            0  0  2  3     1.600    100
            2  0  0  3     0.880    101
            1  1  0  3     0.880    102
            1  0  1  3     0.880    103
            0  2  0  3     0.880    104
            0  1  1  3     0.880    105
            0  0  2  3     0.880    106
            3  0  0  0    17.450    107
            2  1  0  0    17.450    108
            2  0  1  0    17.450    109
            1  2  0  0    17.450    110
            1  1  1  0    17.450    111
            1  0  2  0    17.450    112
            0  3  0  0    17.450    113
            0  2  1  0    17.450    114
            0  1  2  0    17.450    115
            0  0  3  0    17.450    116
            3  0  0  0     9.600    117
            2  1  0  0     9.600    118
            2  0  1  0     9.600    119
            1  2  0  0     9.600    120
            1  1  1  0     9.600    121
            1  0  2  0     9.600    122
            0  3  0  0     9.600    123
            0  2  1  0     9.600    124
            0  1  2  0     9.600    125
            0  0  3  0     9.600    126
            3  0  0  1     5.800    127
            2  1  0  1     5.800    128
            2  0  1  1     5.800    129
            1  2  0  1     5.800    130
            1  1  1  1     5.800    131
            1  0  2  1     5.800    132
            0  3  0  1     5.800    133
            0  2  1  1     5.800    134
            0  1  2  1     5.800    135
            0  0  3  1     5.800    136
            3  0  0  1     3.000    137
            2  1  0  1     3.000    138
            2  0  1  1     3.000    139
            1  2  0  1     3.000    140
            1  1  1  1     3.000    141
            1  0  2  1     3.000    142
            0  3  0  1     3.000    143
            0  2  1  1     3.000    144
            0  1  2  1     3.000    145
            0  0  3  1     3.000    146
            3  0  0  1     1.390    147
            2  1  0  1     1.390    148
            2  0  1  1     1.390    149
            1  2  0  1     1.390    150
            1  1  1  1     1.390    151
            1  0  2  1     1.390    152
            0  3  0  1     1.390    153
            0  2  1  1     1.390    154
            0  1  2  1     1.390    155
            0  0  3  1     1.390    156
            1  0  0  5     1.550    157
            0  1  0  5     1.550    158
            0  0  1  5     1.550    159

 O                                    2    3
                                  ---------------------------------------------------------------------------
            0  0  0  0     9.800    160  190
            0  0  0  0     6.800    161  191
            0  0  0  1     7.580    162  192
            0  0  0  1     2.880    163  193
            0  0  0  1     1.720    164  194
            1  0  0  0     4.080    165  195
            0  1  0  0     4.080    166  196
            0  0  1  0     4.080    167  197
            1  0  0  0     2.080    168  198
            0  1  0  0     2.080    169  199
            0  0  1  0     2.080    170  200
            1  0  0  0     1.120    171  201
            0  1  0  0     1.120    172  202
            0  0  1  0     1.120    173  203
            2  0  0  0     2.000    174  204
            1  1  0  0     2.000    175  205
            1  0  1  0     2.000    176  206
            0  2  0  0     2.000    177  207
            0  1  1  0     2.000    178  208
            0  0  2  0     2.000    179  209
            3  0  0  0     3.000    180  210
            2  1  0  0     3.000    181  211
            2  0  1  0     3.000    182  212
            1  2  0  0     3.000    183  213
            1  1  1  0     3.000    184  214
            1  0  2  0     3.000    185  215
            0  3  0  0     3.000    186  216
            0  2  1  0     3.000    187  217
            0  1  2  0     3.000    188  218
            0  0  3  0     3.000    189  219

 N                                    4    5    6    7
                                  ---------------------------------------------------------------------------
            0  0  0  0     8.740    220  250  280  310
            0  0  0  0     5.900    221  251  281  311
            0  0  0  1     5.150    222  252  282  312
            0  0  0  1     2.500    223  253  283  313
            0  0  0  1     1.500    224  254  284  314
            1  0  0  0     3.680    225  255  285  315
            0  1  0  0     3.680    226  256  286  316
            0  0  1  0     3.680    227  257  287  317
            1  0  0  0     1.880    228  258  288  318
            0  1  0  0     1.880    229  259  289  319
            0  0  1  0     1.880    230  260  290  320
            1  0  0  0     1.000    231  261  291  321
            0  1  0  0     1.000    232  262  292  322
            0  0  1  0     1.000    233  263  293  323
            2  0  0  0     2.200    234  264  294  324
            1  1  0  0     2.200    235  265  295  325
            1  0  1  0     2.200    236  266  296  326
            0  2  0  0     2.200    237  267  297  327
            0  1  1  0     2.200    238  268  298  328
            0  0  2  0     2.200    239  269  299  329
            3  0  0  0     3.300    240  270  300  330
            2  1  0  0     3.300    241  271  301  331
            2  0  1  0     3.300    242  272  302  332
            1  2  0  0     3.300    243  273  303  333
            1  1  1  0     3.300    244  274  304  334
            1  0  2  0     3.300    245  275  305  335
            0  3  0  0     3.300    246  276  306  336
            0  2  1  0     3.300    247  277  307  337
            0  1  2  0     3.300    248  278  308  338
            0  0  3  0     3.300    249  279  309  339

 C                                    8    9   10   11   12   13   14   15   16   17   18   19   20   21   22
                                     23   24   25   26   27   28   29   30   31
                                  ---------------------------------------------------------------------------
            0  0  0  0     7.680    340  370  400  430  460  490  520  550  580  610  640  670  700  730  760
                                    790  820  850  880  910  940  970 1000 1030
            0  0  0  0     5.000    341  371  401  431  461  491  521  551  581  611  641  671  701  731  761
                                    791  821  851  881  911  941  971 1001 1031
            0  0  0  1     1.280    342  372  402  432  462  492  522  552  582  612  642  672  702  732  762
                                    792  822  852  882  912  942  972 1002 1032
            0  0  0  1     2.100    343  373  403  433  463  493  523  553  583  613  643  673  703  733  763
                                    793  823  853  883  913  943  973 1003 1033
            0  0  0  1     4.600    344  374  404  434  464  494  524  554  584  614  644  674  704  734  764
                                    794  824  854  884  914  944  974 1004 1034
            1  0  0  0     0.820    345  375  405  435  465  495  525  555  585  615  645  675  705  735  765
                                    795  825  855  885  915  945  975 1005 1035
            0  1  0  0     0.820    346  376  406  436  466  496  526  556  586  616  646  676  706  736  766
                                    796  826  856  886  916  946  976 1006 1036
            0  0  1  0     0.820    347  377  407  437  467  497  527  557  587  617  647  677  707  737  767
                                    797  827  857  887  917  947  977 1007 1037
            1  0  0  0     1.480    348  378  408  438  468  498  528  558  588  618  648  678  708  738  768
                                    798  828  858  888  918  948  978 1008 1038
            0  1  0  0     1.480    349  379  409  439  469  499  529  559  589  619  649  679  709  739  769
                                    799  829  859  889  919  949  979 1009 1039
            0  0  1  0     1.480    350  380  410  440  470  500  530  560  590  620  650  680  710  740  770
                                    800  830  860  890  920  950  980 1010 1040
            1  0  0  0     2.940    351  381  411  441  471  501  531  561  591  621  651  681  711  741  771
                                    801  831  861  891  921  951  981 1011 1041
            0  1  0  0     2.940    352  382  412  442  472  502  532  562  592  622  652  682  712  742  772
                                    802  832  862  892  922  952  982 1012 1042
            0  0  1  0     2.940    353  383  413  443  473  503  533  563  593  623  653  683  713  743  773
                                    803  833  863  893  923  953  983 1013 1043
            2  0  0  0     2.200    354  384  414  444  474  504  534  564  594  624  654  684  714  744  774
                                    804  834  864  894  924  954  984 1014 1044
            1  1  0  0     2.200    355  385  415  445  475  505  535  565  595  625  655  685  715  745  775
                                    805  835  865  895  925  955  985 1015 1045
            1  0  1  0     2.200    356  386  416  446  476  506  536  566  596  626  656  686  716  746  776
                                    806  836  866  896  926  956  986 1016 1046
            0  2  0  0     2.200    357  387  417  447  477  507  537  567  597  627  657  687  717  747  777
                                    807  837  867  897  927  957  987 1017 1047
            0  1  1  0     2.200    358  388  418  448  478  508  538  568  598  628  658  688  718  748  778
                                    808  838  868  898  928  958  988 1018 1048
            0  0  2  0     2.200    359  389  419  449  479  509  539  569  599  629  659  689  719  749  779
                                    809  839  869  899  929  959  989 1019 1049
            3  0  0  0     3.300    360  390  420  450  480  510  540  570  600  630  660  690  720  750  780
                                    810  840  870  900  930  960  990 1020 1050
            2  1  0  0     3.300    361  391  421  451  481  511  541  571  601  631  661  691  721  751  781
                                    811  841  871  901  931  961  991 1021 1051
            2  0  1  0     3.300    362  392  422  452  482  512  542  572  602  632  662  692  722  752  782
                                    812  842  872  902  932  962  992 1022 1052
            1  2  0  0     3.300    363  393  423  453  483  513  543  573  603  633  663  693  723  753  783
                                    813  843  873  903  933  963  993 1023 1053
            1  1  1  0     3.300    364  394  424  454  484  514  544  574  604  634  664  694  724  754  784
                                    814  844  874  904  934  964  994 1024 1054
            1  0  2  0     3.300    365  395  425  455  485  515  545  575  605  635  665  695  725  755  785
                                    815  845  875  905  935  965  995 1025 1055
            0  3  0  0     3.300    366  396  426  456  486  516  546  576  606  636  666  696  726  756  786
                                    816  846  876  906  936  966  996 1026 1056
            0  2  1  0     3.300    367  397  427  457  487  517  547  577  607  637  667  697  727  757  787
                                    817  847  877  907  937  967  997 1027 1057
            0  1  2  0     3.300    368  398  428  458  488  518  548  578  608  638  668  698  728  758  788
                                    818  848  878  908  938  968  998 1028 1058
            0  0  3  0     3.300    369  399  429  459  489  519  549  579  609  639  669  699  729  759  789
                                    819  849  879  909  939  969  999 1029 1059

 H                                   32   33   34   35   36   37   38   39   40   41   42   43   44   45   46
                                     47
                                  ---------------------------------------------------------------------------
            0  0  0  0     0.690   1060 1072 1084 1096 1108 1120 1132 1144 1156 1168 1180 1192 1204 1216 1228
                                   1240
            0  0  0  0     0.920   1061 1073 1085 1097 1109 1121 1133 1145 1157 1169 1181 1193 1205 1217 1229
                                   1241
            0  0  0  0     1.580   1062 1074 1086 1098 1110 1122 1134 1146 1158 1170 1182 1194 1206 1218 1230
                                   1242
            1  0  0  0     1.250   1063 1075 1087 1099 1111 1123 1135 1147 1159 1171 1183 1195 1207 1219 1231
                                   1243
            0  1  0  0     1.250   1064 1076 1088 1100 1112 1124 1136 1148 1160 1172 1184 1196 1208 1220 1232
                                   1244
            0  0  1  0     1.250   1065 1077 1089 1101 1113 1125 1137 1149 1161 1173 1185 1197 1209 1221 1233
                                   1245
            2  0  0  0     2.500   1066 1078 1090 1102 1114 1126 1138 1150 1162 1174 1186 1198 1210 1222 1234
                                   1246
            1  1  0  0     2.500   1067 1079 1091 1103 1115 1127 1139 1151 1163 1175 1187 1199 1211 1223 1235
                                   1247
            1  0  1  0     2.500   1068 1080 1092 1104 1116 1128 1140 1152 1164 1176 1188 1200 1212 1224 1236
                                   1248
            0  2  0  0     2.500   1069 1081 1093 1105 1117 1129 1141 1153 1165 1177 1189 1201 1213 1225 1237
                                   1249
            0  1  1  0     2.500   1070 1082 1094 1106 1118 1130 1142 1154 1166 1178 1190 1202 1214 1226 1238
                                   1250
            0  0  2  0     2.500   1071 1083 1095 1107 1119 1131 1143 1155 1167 1179 1191 1203 1215 1227 1239
                                   1251

 Cl                                  48   49
                                  ---------------------------------------------------------------------------
            0  0  0  0    20.300   1252 1290
            0  0  0  0    15.250   1253 1291
            0  0  0  1     6.250   1254 1292
            0  0  0  1     4.450   1255 1293
            1  0  0  0     8.850   1256 1294
            0  1  0  0     8.850   1257 1295
            0  0  1  0     8.850   1258 1296
            1  0  0  0     5.050   1259 1297
            0  1  0  0     5.050   1260 1298
            0  0  1  0     5.050   1261 1299
            0  0  0  2     3.450   1262 1300
            0  0  0  2     2.300   1263 1301
            0  0  0  2     1.600   1264 1302
            1  0  0  1     3.350   1265 1303
            0  1  0  1     3.350   1266 1304
            0  0  1  1     3.350   1267 1305
            1  0  0  1     2.050   1268 1306
            0  1  0  1     2.050   1269 1307
            0  0  1  1     2.050   1270 1308
            1  0  0  1     1.200   1271 1309
            0  1  0  1     1.200   1272 1310
            0  0  1  1     1.200   1273 1311
            2  0  0  0     2.000   1274 1312
            1  1  0  0     2.000   1275 1313
            1  0  1  0     2.000   1276 1314
            0  2  0  0     2.000   1277 1315
            0  1  1  0     2.000   1278 1316
            0  0  2  0     2.000   1279 1317
            3  0  0  0     2.000   1280 1318
            2  1  0  0     2.000   1281 1319
            2  0  1  0     2.000   1282 1320
            1  2  0  0     2.000   1283 1321
            1  1  1  0     2.000   1284 1322
            1  0  2  0     2.000   1285 1323
            0  3  0  0     2.000   1286 1324
            0  2  1  0     2.000   1287 1325
            0  1  2  0     2.000   1288 1326
            0  0  3  0     2.000   1289 1327

 Total number of charge fitting functions (nprimf)      3929
 Total number of Cartesian basis functions (naos)       1327
 Total number of Cartesian core functions  (ncos)          0

1
 ***************************************************************************************************



                                              ***********************
                                              *  T E C H N I C A L  *
                                              ***********************
  



 =============================================================
 P A R A L L E L I Z A T I O N  and  V E C T O R I Z A T I O N
 =============================================================
  
 Nr of parallel processes:                               16
 Maximum vector length in NumInt loops:                 128



 =====================
 S C F   U P D A T E S
 =====================
  
 Max. nr. of cycles:                               300
 Convergence criterion:                              0.0000010000
   secondary criterion:                              0.0010000000

 Mix parameter (when DIIS does not apply):           0.2000000000
 Mixed ADIIS+SDIIS will be used                  
    Max number of expansion vectors:                10
    Pure ADIIS when Max([F,P]) is above              0.1000000000
    Pure SDIIS when Max([F,P]) is below              0.0010000000
 Automatic ElectronSmearing (in case of problematic SCF convergence) disabled



 =================
 P R E C I S I O N  ***  (General: NumInt, NeglectFunctionTails, ...)  ***
 =================
  

 NumInt:           Target precision:                 4.0000000000
 -------           Initial precision:                4.0000000000
                   Min. precision (optimization):    4.0000000000

 Neglect Functions:          Basis functions:        0.1000000000E-13
 ------------------          Fit functions:          0.1000000000E-13



 ===========================
 L I N E A R   S C A L I N G
 ===========================
  

 Cut-off radii density fit:                        0.1000000000E-07
 Overlap cut-off criterion AO matrix elements:     0.1000000000E-05
 Cut-offs for Coulomb potential and fitted density:0.1000000000E-07
 Cut-off criterion for Coulomb multipole terms:    0.1000000000E-07
 Progressive Convergence parameter:                 0.000000000    
1
 ***************************************************************************************************



                                            ***************************
                                            *  C O M P U T A T I O N  *
                                            ***************************
  



 ==============================
 Double group spinor symmetries  ***  (Spin-Orbit)  ***
 ==============================
  

 The double group Lowdins are spinors adapted to the irreducible representations
 of the double group. These double group Lowdins are linear combinations of
 products of the single group Lowdins and the spinfunctions. The single group
 Lowdins are  orthonormalized symmetrized fragment orbitals (SFOs).
 The complex coefficients that are used in the linear combinations are also
 known as Clebsch-Gordan coefficients.
 The spin functions (alpha,beta) span irrep e1/2


          A * e 1/2 :      A1/2

  A1/2:1 = A.alpha
  A1/2:1 = A.beta

 The table summarizes which one-electron orbital irreps (single group) couple
 with spin to which spinor irreps (double group).
 The Clebsch-Gordan series for each direct product: orbital irrep times e1/2.
                  A
            -------
  A1/2           X


 dimension (equal to the max. nr. of electrons per spinor) of the double group irreps
 ------------------------------------------------------------------------------------
  A1/2           1

 Number of elements of the density matrix on this node (used, total):     53496    881128



 ===========================================
 Numerical Integration : Fuzzy Cells (Becke)
 ===========================================
  
 Becke grid quality: NORMAL         
  
 Lebedev angular grid order:             min:  11 max:  23
 Nr. of radial points:                   min:  46 max: 175

 Total nr. of points:     342992
 Nr. of blocks:             2680
 Block length:               128
 Nr. of dummy points:         48


 Test of Precision of the Numerical Integration Grid
 ===================================================

 Integral of the Total Core Density:                   0.00000000000000


 -------------------------------------------
  COSMO surface
  Area             =         1391.536
  Volume           =         2896.502
  Number of Points =         4182
 -------------------------------------------



 ========================
 Density Fitting (zlmFit)
 ========================
  
 ZlmFit Fit Quality: NORMAL         
  
 Max L-expansion:                        min:   6 max:   7
 Nr. of radial interpolation points:     min:  39 max: 150



 ======================
 RI Hartree-Fock Scheme
 ======================
  
 Fit Set Quality     : NORMAL
 Integration Quality : NORMAL
 Threshold Quality   : NORMAL
 Response Quality    : DEFAULT
 Is Range Separated  :  T
 Type of Range Separation : 
 Long-Range: Erf potential                                                      
                                                                                
   
 Asymptotic Coulomb       :   0.650000000000000     
 
 RIHartreeFock Dependency: number of modified vectors:          54



 =====
 S C F  ***  ScaSCF  ***
 =====
  
 Initial density matrix is calculated as sum of fragments

 CYCLE    1
 SCF Error: norm([F,P])=   1408.173607169552, max([F,P])=    320.581940575533
 orbitals (Q,E):
 ---------------
 A1/2 :321...340     ( 1.00    -0.4094)  ( 1.00    -0.4094)  ( 1.00    -0.4088)  ( 1.00    -0.4088)
                     ( 1.00    -0.3946)  ( 1.00    -0.3946)  ( 1.00    -0.3940)  ( 1.00    -0.3940)
                     ( 1.00    -0.3763)  ( 1.00    -0.3763)  ( 0.00    -0.2428)  ( 0.00    -0.2428)
                     ( 0.00    -0.2409)  ( 0.00    -0.2409)  ( 0.00    -0.2340)  ( 0.00    -0.2340)
                     ( 0.00    -0.2336)  ( 0.00    -0.2336)  ( 0.00    -0.1848)  ( 0.00    -0.1848)

 CYCLE    2
   MIX coefficients:  0.8000  0.2000
 SCF Error: norm([F,P])=      3.003710197678, max([F,P])=      0.515657131865
 orbitals (Q,E):
 ---------------
 A1/2 :321...340     ( 1.00    -0.3785)  ( 1.00    -0.3785)  ( 1.00    -0.3775)  ( 1.00    -0.3775)
                     ( 1.00    -0.3755)  ( 1.00    -0.3755)  ( 1.00    -0.3631)  ( 1.00    -0.3631)
                     ( 1.00    -0.3605)  ( 1.00    -0.3605)  ( 0.00    -0.1910)  ( 0.00    -0.1910)
                     ( 0.00    -0.1898)  ( 0.00    -0.1898)  ( 0.00    -0.1869)  ( 0.00    -0.1869)
                     ( 0.00    -0.1824)  ( 0.00    -0.1824)  ( 0.00    -0.1794)  ( 0.00    -0.1794)

 CYCLE    3
  SDIIS (wt  0.000): -1.1032  2.1032
 A-DIIS (wt  1.000):  0.0000  1.0000
  DIIS coefficients:  0.0000  1.0000
 SCF Error: norm([F,P])=      2.094379520870, max([F,P])=      0.410696617549
 orbitals (Q,E):
 ---------------
 A1/2 :321...340     ( 1.00    -0.2954)  ( 1.00    -0.2954)  ( 1.00    -0.2731)  ( 1.00    -0.2731)
                     ( 1.00    -0.2644)  ( 1.00    -0.2644)  ( 1.00    -0.2568)  ( 1.00    -0.2568)
                     ( 1.00    -0.2483)  ( 1.00    -0.2483)  ( 0.00    -0.2082)  ( 0.00    -0.2082)
                     ( 0.00    -0.1936)  ( 0.00    -0.1936)  ( 0.00    -0.1803)  ( 0.00    -0.1803)
                     ( 0.00    -0.1699)  ( 0.00    -0.1699)  ( 0.00    -0.0812)  ( 0.00    -0.0812)

 CYCLE    4
  SDIIS (wt  0.000): -0.0494  0.6768  0.3726
 A-DIIS (wt  1.000):  0.0000  0.8428  0.1572
  DIIS coefficients:  0.0000  0.8428  0.1572
 SCF Error: norm([F,P])=      2.810786914380, max([F,P])=      0.425024178999
 orbitals (Q,E):
 ---------------
 A1/2 :321...340     ( 1.00    -0.2905)  ( 1.00    -0.2905)  ( 1.00    -0.2817)  ( 1.00    -0.2817)
                     ( 1.00    -0.2756)  ( 1.00    -0.2756)  ( 1.00    -0.2660)  ( 1.00    -0.2660)
                     ( 1.00    -0.2595)  ( 1.00    -0.2595)  ( 0.00    -0.0379)  ( 0.00    -0.0379)
                     ( 0.00    -0.0263)  ( 0.00    -0.0263)  ( 0.00    -0.0098)  ( 0.00    -0.0098)
                     ( 0.00    -0.0070)  ( 0.00    -0.0070)  ( 0.00    -0.0029)  ( 0.00    -0.0029)

 CYCLE    5
  SDIIS (wt  0.668):  0.1472 -0.0683  0.0128  0.9083
 A-DIIS (wt  0.332):  0.0000  0.0000  0.0000  1.0000
  DIIS coefficients:  0.0983 -0.0456  0.0085  0.9388
 SCF Error: norm([F,P])=      0.449396231314, max([F,P])=      0.033908627946
 orbitals (Q,E):
 ---------------
 A1/2 :321...340     ( 1.00    -0.3504)  ( 1.00    -0.3504)  ( 1.00    -0.3226)  ( 1.00    -0.3226)
                     ( 1.00    -0.3193)  ( 1.00    -0.3193)  ( 1.00    -0.3106)  ( 1.00    -0.3106)
                     ( 1.00    -0.3065)  ( 1.00    -0.3065)  ( 0.00    -0.0691)  ( 0.00    -0.0691)
                     ( 0.00    -0.0630)  ( 0.00    -0.0630)  ( 0.00    -0.0493)  ( 0.00    -0.0493)
                     ( 0.00    -0.0465)  ( 0.00    -0.0465)  ( 0.00    -0.0413)  ( 0.00    -0.0413)

 CYCLE    6
  SDIIS (wt  0.703): -0.0495  0.0773  0.0050  0.3769  0.5904
 A-DIIS (wt  0.297):  0.0000  0.0000  0.0000  0.3716  0.6284
  DIIS coefficients: -0.0348  0.0543  0.0035  0.3753  0.6017
 SCF Error: norm([F,P])=      0.324750861775, max([F,P])=      0.030410063107
 orbitals (Q,E):
 ---------------
 A1/2 :321...340     ( 1.00    -0.3375)  ( 1.00    -0.3375)  ( 1.00    -0.3134)  ( 1.00    -0.3134)
                     ( 1.00    -0.3086)  ( 1.00    -0.3086)  ( 1.00    -0.2994)  ( 1.00    -0.2994)
                     ( 1.00    -0.2940)  ( 1.00    -0.2940)  ( 0.00    -0.0620)  ( 0.00    -0.0620)
                     ( 0.00    -0.0544)  ( 0.00    -0.0544)  ( 0.00    -0.0370)  ( 0.00    -0.0370)
                     ( 0.00    -0.0361)  ( 0.00    -0.0361)  ( 0.00    -0.0314)  ( 0.00    -0.0314)

 CYCLE    7
  SDIIS (wt  0.945): -0.0118  0.0188 -0.0021  0.1655  0.2911  0.5386
 A-DIIS (wt  0.055):  0.0000  0.0000  0.0000  0.0000  0.0000  1.0000
  DIIS coefficients: -0.0112  0.0178 -0.0020  0.1564  0.2750  0.5640
 SCF Error: norm([F,P])=      0.068915652491, max([F,P])=      0.006451967829
 orbitals (Q,E):
 ---------------
 A1/2 :321...340     ( 1.00    -0.3399)  ( 1.00    -0.3399)  ( 1.00    -0.3110)  ( 1.00    -0.3110)
                     ( 1.00    -0.3064)  ( 1.00    -0.3064)  ( 1.00    -0.2975)  ( 1.00    -0.2975)
                     ( 1.00    -0.2923)  ( 1.00    -0.2923)  ( 0.00    -0.0590)  ( 0.00    -0.0590)
                     ( 0.00    -0.0514)  ( 0.00    -0.0514)  ( 0.00    -0.0358)  ( 0.00    -0.0358)
                     ( 0.00    -0.0341)  ( 0.00    -0.0341)  ( 0.00    -0.0290)  ( 0.00    -0.0290)

 CYCLE    8
  SDIIS (wt  0.994):  0.0001 -0.0002 -0.0011  0.0160  0.0393  0.2370  0.7089
 A-DIIS (wt  0.006):  0.0000  0.0000  0.0000  0.0000  0.0000  0.0000  1.0000
  DIIS coefficients:  0.0001 -0.0002 -0.0011  0.0159  0.0391  0.2355  0.7107
 SCF Error: norm([F,P])=      0.015122046292, max([F,P])=      0.001614759218
 orbitals (Q,E):
 ---------------
 A1/2 :321...340     ( 1.00    -0.3388)  ( 1.00    -0.3388)  ( 1.00    -0.3109)  ( 1.00    -0.3109)
                     ( 1.00    -0.3063)  ( 1.00    -0.3063)  ( 1.00    -0.2973)  ( 1.00    -0.2973)
                     ( 1.00    -0.2921)  ( 1.00    -0.2921)  ( 0.00    -0.0588)  ( 0.00    -0.0588)
                     ( 0.00    -0.0511)  ( 0.00    -0.0511)  ( 0.00    -0.0353)  ( 0.00    -0.0353)
                     ( 0.00    -0.0337)  ( 0.00    -0.0337)  ( 0.00    -0.0287)  ( 0.00    -0.0287)

 CYCLE    9
  SDIIS (wt  1.000):  0.0000 -0.0006 -0.0003 -0.0127 -0.0167  0.0338  0.3272  0.6692
  DIIS coefficients:  0.0000 -0.0006 -0.0003 -0.0127 -0.0167  0.0338  0.3272  0.6692
 SCF Error: norm([F,P])=      0.005250113471, max([F,P])=      0.000554171339
 orbitals (Q,E):
 ---------------
 A1/2 :321...340     ( 1.00    -0.3394)  ( 1.00    -0.3394)  ( 1.00    -0.3112)  ( 1.00    -0.3112)
                     ( 1.00    -0.3066)  ( 1.00    -0.3066)  ( 1.00    -0.2977)  ( 1.00    -0.2977)
                     ( 1.00    -0.2925)  ( 1.00    -0.2925)  ( 0.00    -0.0590)  ( 0.00    -0.0590)
                     ( 0.00    -0.0514)  ( 0.00    -0.0514)  ( 0.00    -0.0356)  ( 0.00    -0.0356)
                     ( 0.00    -0.0340)  ( 0.00    -0.0340)  ( 0.00    -0.0289)  ( 0.00    -0.0289)

 CYCLE   10
  SDIIS (wt  1.000):  0.0003 -0.0005  0.0000 -0.0059 -0.0103 -0.0181  0.0181  0.1627  0.8536
  DIIS coefficients:  0.0003 -0.0005  0.0000 -0.0059 -0.0103 -0.0181  0.0181  0.1627  0.8536
 SCF Error: norm([F,P])=      0.001245020809, max([F,P])=      0.000134333943
 orbitals (Q,E):
 ---------------
 A1/2 :321...340     ( 1.00    -0.3394)  ( 1.00    -0.3394)  ( 1.00    -0.3112)  ( 1.00    -0.3112)
                     ( 1.00    -0.3066)  ( 1.00    -0.3066)  ( 1.00    -0.2977)  ( 1.00    -0.2977)
                     ( 1.00    -0.2924)  ( 1.00    -0.2924)  ( 0.00    -0.0592)  ( 0.00    -0.0592)
                     ( 0.00    -0.0516)  ( 0.00    -0.0516)  ( 0.00    -0.0356)  ( 0.00    -0.0356)
                     ( 0.00    -0.0341)  ( 0.00    -0.0341)  ( 0.00    -0.0290)  ( 0.00    -0.0290)

 CYCLE   11
  SDIIS (wt  1.000):  0.0002 -0.0002 -0.0001 -0.0010 -0.0028 -0.0144 -0.0378 -0.0230  0.3934  0.6858
  DIIS coefficients:  0.0002 -0.0002 -0.0001 -0.0010 -0.0028 -0.0144 -0.0378 -0.0230  0.3934  0.6858
 SCF Error: norm([F,P])=      0.000854999746, max([F,P])=      0.000106164548
 orbitals (Q,E):
 ---------------
 A1/2 :321...340     ( 1.00    -0.3394)  ( 1.00    -0.3394)  ( 1.00    -0.3112)  ( 1.00    -0.3112)
                     ( 1.00    -0.3066)  ( 1.00    -0.3066)  ( 1.00    -0.2977)  ( 1.00    -0.2977)
                     ( 1.00    -0.2924)  ( 1.00    -0.2924)  ( 0.00    -0.0591)  ( 0.00    -0.0591)
                     ( 0.00    -0.0515)  ( 0.00    -0.0515)  ( 0.00    -0.0356)  ( 0.00    -0.0356)
                     ( 0.00    -0.0340)  ( 0.00    -0.0340)  ( 0.00    -0.0290)  ( 0.00    -0.0290)

 CYCLE   12
  SDIIS (wt  1.000):  0.0000 -0.0001  0.0005  0.0005 -0.0028 -0.0162 -0.0340  0.0143  0.2678  0.7699
  DIIS coefficients:  0.0000 -0.0001  0.0005  0.0005 -0.0028 -0.0162 -0.0340  0.0143  0.2678  0.7699
 SCF Error: norm([F,P])=      0.000278349218, max([F,P])=      0.000027209693
 orbitals (Q,E):
 ---------------
 A1/2 :321...340     ( 1.00    -0.3394)  ( 1.00    -0.3394)  ( 1.00    -0.3112)  ( 1.00    -0.3112)
                     ( 1.00    -0.3066)  ( 1.00    -0.3066)  ( 1.00    -0.2977)  ( 1.00    -0.2977)
                     ( 1.00    -0.2924)  ( 1.00    -0.2924)  ( 0.00    -0.0591)  ( 0.00    -0.0591)
                     ( 0.00    -0.0515)  ( 0.00    -0.0515)  ( 0.00    -0.0356)  ( 0.00    -0.0356)
                     ( 0.00    -0.0340)  ( 0.00    -0.0340)  ( 0.00    -0.0290)  ( 0.00    -0.0290)

 CYCLE   13
  SDIIS (wt  1.000):  0.0000  0.0003  0.0006  0.0013 -0.0003 -0.0115 -0.0647 -0.0248  0.3185  0.7806
  DIIS coefficients:  0.0000  0.0003  0.0006  0.0013 -0.0003 -0.0115 -0.0647 -0.0248  0.3185  0.7806
 SCF Error: norm([F,P])=      0.000144540988, max([F,P])=      0.000018176987
 orbitals (Q,E):
 ---------------
 A1/2 :321...340     ( 1.00    -0.3394)  ( 1.00    -0.3394)  ( 1.00    -0.3112)  ( 1.00    -0.3112)
                     ( 1.00    -0.3066)  ( 1.00    -0.3066)  ( 1.00    -0.2977)  ( 1.00    -0.2977)
                     ( 1.00    -0.2925)  ( 1.00    -0.2925)  ( 0.00    -0.0591)  ( 0.00    -0.0591)
                     ( 0.00    -0.0515)  ( 0.00    -0.0515)  ( 0.00    -0.0356)  ( 0.00    -0.0356)
                     ( 0.00    -0.0340)  ( 0.00    -0.0340)  ( 0.00    -0.0290)  ( 0.00    -0.0290)

 CYCLE   14
  SDIIS (wt  1.000):  0.0001  0.0003  0.0012  0.0016 -0.0026 -0.0277 -0.0298  0.0304  0.2606  0.7659
  DIIS coefficients:  0.0001  0.0003  0.0012  0.0016 -0.0026 -0.0277 -0.0298  0.0304  0.2606  0.7659
 SCF Error: norm([F,P])=      0.000057910407, max([F,P])=      0.000006365406
 orbitals (Q,E):
 ---------------
 A1/2 :321...340     ( 1.00    -0.3394)  ( 1.00    -0.3394)  ( 1.00    -0.3112)  ( 1.00    -0.3112)
                     ( 1.00    -0.3066)  ( 1.00    -0.3066)  ( 1.00    -0.2977)  ( 1.00    -0.2977)
                     ( 1.00    -0.2925)  ( 1.00    -0.2925)  ( 0.00    -0.0591)  ( 0.00    -0.0591)
                     ( 0.00    -0.0515)  ( 0.00    -0.0515)  ( 0.00    -0.0356)  ( 0.00    -0.0356)
                     ( 0.00    -0.0340)  ( 0.00    -0.0340)  ( 0.00    -0.0290)  ( 0.00    -0.0290)

 CYCLE   15
  SDIIS (wt  1.000):  0.0000  0.0006  0.0021  0.0030 -0.0080 -0.0355 -0.0734  0.0234  0.4296  0.6582
  DIIS coefficients:  0.0000  0.0006  0.0021  0.0030 -0.0080 -0.0355 -0.0734  0.0234  0.4296  0.6582
 SCF Error: norm([F,P])=      0.000042386574, max([F,P])=      0.000004349921
 orbitals (Q,E):
 ---------------
 A1/2 :321...340     ( 1.00    -0.3394)  ( 1.00    -0.3394)  ( 1.00    -0.3112)  ( 1.00    -0.3112)
                     ( 1.00    -0.3066)  ( 1.00    -0.3066)  ( 1.00    -0.2977)  ( 1.00    -0.2977)
                     ( 1.00    -0.2925)  ( 1.00    -0.2925)  ( 0.00    -0.0591)  ( 0.00    -0.0591)
                     ( 0.00    -0.0515)  ( 0.00    -0.0515)  ( 0.00    -0.0356)  ( 0.00    -0.0356)
                     ( 0.00    -0.0340)  ( 0.00    -0.0340)  ( 0.00    -0.0290)  ( 0.00    -0.0290)

 CYCLE   16
  SDIIS (wt  1.000):  0.0001  0.0005  0.0010  0.0038 -0.0048 -0.0372 -0.0468  0.0400  0.1953  0.8481
  DIIS coefficients:  0.0001  0.0005  0.0010  0.0038 -0.0048 -0.0372 -0.0468  0.0400  0.1953  0.8481
 SCF Error: norm([F,P])=      0.000014209805, max([F,P])=      0.000001660289
 orbitals (Q,E):
 ---------------
 A1/2 :321...340     ( 1.00    -0.3394)  ( 1.00    -0.3394)  ( 1.00    -0.3112)  ( 1.00    -0.3112)
                     ( 1.00    -0.3066)  ( 1.00    -0.3066)  ( 1.00    -0.2977)  ( 1.00    -0.2977)
                     ( 1.00    -0.2925)  ( 1.00    -0.2925)  ( 0.00    -0.0591)  ( 0.00    -0.0591)
                     ( 0.00    -0.0515)  ( 0.00    -0.0515)  ( 0.00    -0.0356)  ( 0.00    -0.0356)
                     ( 0.00    -0.0340)  ( 0.00    -0.0340)  ( 0.00    -0.0290)  ( 0.00    -0.0290)

 CYCLE   17
  SDIIS (wt  1.000):  0.0001  0.0005  0.0012 -0.0004 -0.0044 -0.0146 -0.0561 -0.0413  0.2103  0.9046
  DIIS coefficients:  0.0001  0.0005  0.0012 -0.0004 -0.0044 -0.0146 -0.0561 -0.0413  0.2103  0.9046
 SCF Error: norm([F,P])=      0.000007019189, max([F,P])=      0.000000839565
 orbitals (Q,E):
 ---------------
 A1/2 :321...340     ( 1.00    -0.3394)  ( 1.00    -0.3394)  ( 1.00    -0.3112)  ( 1.00    -0.3112)
                     ( 1.00    -0.3066)  ( 1.00    -0.3066)  ( 1.00    -0.2977)  ( 1.00    -0.2977)
                     ( 1.00    -0.2925)  ( 1.00    -0.2925)  ( 0.00    -0.0591)  ( 0.00    -0.0591)
                     ( 0.00    -0.0515)  ( 0.00    -0.0515)  ( 0.00    -0.0356)  ( 0.00    -0.0356)
                     ( 0.00    -0.0340)  ( 0.00    -0.0340)  ( 0.00    -0.0290)  ( 0.00    -0.0290)

 SCF CONVERGED
 cosmo_calcen: 0.5 (esolb+esolc) (Hartrees) =   -0.057868

 Solvation energy (screening term,uncorrected) =    -36.313009 kcal/mol

 Solvation energy (dispersion and cavitation terms) =      2.602064 kcal/mol
 Solvation Energy Contributions (Hartrees)
          esola   esolb+esolc
     0.05786846   -0.11573691
 esol last cycle   -0.05786846

 CYCLE   18
1
 ***************************************************************************************************



                                                *******************
                                                *  R E S U L T S  *
                                                *******************
  
  
 Hartree-Fock exchange energy:   -160.189951344282     
 *** Using EXACT density in Focky


 *** Use of untested dispersion parameters detected in GrimmeDispersion ***


  SDIIS (wt  1.000):  0.0000 -0.0002  0.0015  0.0059  0.0025 -0.0340 -0.0612 -0.0506  0.3213  0.8148
  DIIS coefficients:  0.0000 -0.0002  0.0015  0.0059  0.0025 -0.0340 -0.0612 -0.0506  0.3213  0.8148
 SCF Error: norm([F,P])=      0.000003316207, max([F,P])=      0.000000399353

 Scaled ZORA Orbital Energies, per Irrep and Spin:
 =================================================
                        Occup              E (au)              E (eV)       Diff (eV) with prev. cycle
                        -----      --------------------        ------       --------------------------
 A1/2
             321        1.000     -0.33941920611057E+00        -9.236               6.07E-06
             322        1.000     -0.33941920610667E+00        -9.236               6.07E-06
             323        1.000     -0.31118488269151E+00        -8.468               1.56E-06
             324        1.000     -0.31118488268990E+00        -8.468               1.56E-06
             325        1.000     -0.30656675129051E+00        -8.342               1.25E-06
             326        1.000     -0.30656675128914E+00        -8.342               1.25E-06
             327        1.000     -0.29768135914184E+00        -8.100               2.95E-06
             328        1.000     -0.29768135914136E+00        -8.100               2.95E-06
             329        1.000     -0.29245152686644E+00        -7.958               3.15E-06
             330        1.000     -0.29245152686559E+00        -7.958               3.15E-06
             331        0.000     -0.59101894218471E-01        -1.608
             332        0.000     -0.59101894217717E-01        -1.608
             333        0.000     -0.51488110018814E-01        -1.401
             334        0.000     -0.51488110017780E-01        -1.401
             335        0.000     -0.35562863479342E-01        -0.968
             336        0.000     -0.35562863478541E-01        -0.968
             337        0.000     -0.34011275593104E-01        -0.925
             338        0.000     -0.34011275592612E-01        -0.925
             339        0.000     -0.28969733004526E-01        -0.788
             340        0.000     -0.28969733004148E-01        -0.788
  
 HOMO :      330 A1/2             -0.29245152686559E+00
 LUMO :      331 A1/2             -0.59101894218471E-01
  
 cosmo_calcen: 0.5 (esolb+esolc) (Hartrees) =   -0.057868

 Solvation energy (screening term,uncorrected) =    -36.312977 kcal/mol

 Solvation energy (dispersion and cavitation terms) =      2.602064 kcal/mol
 Solvation Energy Contributions (Hartrees)
          esola   esolb+esolc
     0.05786841   -0.11573681
 esol last cycle   -0.05786841


 All Electron Calculation, thus no Orbital Energies of the Core Orbitals are calculated


 Fit test: (difference of exact and fit density, squared integrated, result summed over spins)
         Sum-of-Fragments:                             0.00000785887416
         Orthogonalized Fragments:                     0.00351729459179
         SCF:                                          0.00415773359207



 ==========================
 Electron Density at Nuclei
 ==========================
  
 The electron density is calculated at points on a small sphere around the center of a nucleus.
 The printed electron density is the average electron density on these points.
 The radius of the sphere is the printed approximate finite nuclear radius.
 Note: ZORA-4 density is used, which includes small component density

         Atom        Nuclear Radius (Angstrom)             Electron Density (a.u.)
         ----        -------------------------             -----------------------
     1)   U                 0.0000742428                          4173013.90431
     2)   O                 0.0000345546                              313.78630
     3)   O                 0.0000345546                              313.78631
     4)   N                 0.0000333706                              205.66557
     5)   C                 0.0000320678                              126.82271
     6)   H                 0.0000181514                                0.49305
     7)   C                 0.0000320678                              126.76341
     8)   H                 0.0000181514                                0.49207
     9)   C                 0.0000320678                              126.81169
    10)   H                 0.0000181514                                0.49160
    11)   C                 0.0000320678                              126.75411
    12)   C                 0.0000320678                              126.76801
    13)   H                 0.0000181514                                0.49262
    14)   C                 0.0000320678                              126.76801
    15)   H                 0.0000181514                                0.49262
    16)   C                 0.0000320678                              126.75412
    17)   C                 0.0000320678                              126.81169
    18)   H                 0.0000181514                                0.49160
    19)   C                 0.0000320678                              126.76341
    20)   H                 0.0000181514                                0.49207
    21)   C                 0.0000320678                              126.82271
    22)   H                 0.0000181514                                0.49305
    23)   N                 0.0000333706                              205.66557
    24)   C                 0.0000320678                              126.74809
    25)   C                 0.0000320678                              126.74810
    26)   Cl                0.0000426624                             3311.15421
    27)   Cl                0.0000426624                             3311.15424
    28)   N                 0.0000333706                              205.73333
    29)   C                 0.0000320678                              126.80695
    30)   H                 0.0000181514                                0.49717
    31)   C                 0.0000320678                              126.76327
    32)   H                 0.0000181514                                0.49247
    33)   C                 0.0000320678                              126.80362
    34)   H                 0.0000181514                                0.49213
    35)   C                 0.0000320678                              126.75301
    36)   C                 0.0000320678                              126.76520
    37)   H                 0.0000181514                                0.49296
    38)   C                 0.0000320678                              126.76520
    39)   H                 0.0000181514                                0.49296
    40)   C                 0.0000320678                              126.75302
    41)   C                 0.0000320678                              126.80362
    42)   H                 0.0000181514                                0.49213
    43)   C                 0.0000320678                              126.76327
    44)   H                 0.0000181514                                0.49247
    45)   C                 0.0000320678                              126.80695
    46)   H                 0.0000181514                                0.49717
    47)   N                 0.0000333706                              205.73333
    48)   C                 0.0000320678                              126.75030
    49)   C                 0.0000320678                              126.75030



 =======================================
 M U L L I K E N   P O P U L A T I O N S
 =======================================
  
 The survey below gives for each atom:
[...]
   i, eigenvalue(i) in dvdson     8    0.1090667297E+00
   i, eigenvalue(i) in dvdson     9    0.1093179214E+00
   i, eigenvalue(i) in dvdson    10    0.1154750477E+00
   i, eigenvalue(i) in dvdson    11    0.1183726353E+00
   i, eigenvalue(i) in dvdson    12    0.1279494879E+00
   i, eigenvalue(i) in dvdson    13    0.1303974213E+00
   i, eigenvalue(i) in dvdson    14    0.1317387885E+00
   i, eigenvalue(i) in dvdson    15    0.1318448227E+00
   i, eigenvalue(i) in dvdson    16    0.1518306797E+00
 collapse basis         104          32
Eigenvalues of small (approximate) problem
   i, eigenvalue(i) in dvdson     1    0.9139123410E-01
   i, eigenvalue(i) in dvdson     2    0.9281156114E-01
   i, eigenvalue(i) in dvdson     3    0.9544746392E-01
   i, eigenvalue(i) in dvdson     4    0.9970970808E-01
   i, eigenvalue(i) in dvdson     5    0.1012652870E+00
   i, eigenvalue(i) in dvdson     6    0.1042895614E+00
   i, eigenvalue(i) in dvdson     7    0.1058007544E+00
   i, eigenvalue(i) in dvdson     8    0.1062895940E+00
   i, eigenvalue(i) in dvdson     9    0.1072216498E+00
   i, eigenvalue(i) in dvdson    10    0.1082004526E+00
   i, eigenvalue(i) in dvdson    11    0.1111152588E+00
   i, eigenvalue(i) in dvdson    12    0.1193379839E+00
   i, eigenvalue(i) in dvdson    13    0.1209605062E+00
   i, eigenvalue(i) in dvdson    14    0.1301931148E+00
   i, eigenvalue(i) in dvdson    15    0.1309371224E+00
   i, eigenvalue(i) in dvdson    16    0.1311316245E+00
Eigenvalues of small (approximate) problem
   i, eigenvalue(i) in dvdson     1    0.8993538284E-01
   i, eigenvalue(i) in dvdson     2    0.9076285280E-01
   i, eigenvalue(i) in dvdson     3    0.9139745509E-01
   i, eigenvalue(i) in dvdson     4    0.9576373982E-01
   i, eigenvalue(i) in dvdson     5    0.9703535985E-01
   i, eigenvalue(i) in dvdson     6    0.9997846039E-01
   i, eigenvalue(i) in dvdson     7    0.1014274002E+00
   i, eigenvalue(i) in dvdson     8    0.1033005724E+00
   i, eigenvalue(i) in dvdson     9    0.1033912443E+00
   i, eigenvalue(i) in dvdson    10    0.1042094084E+00
   i, eigenvalue(i) in dvdson    11    0.1044013566E+00
   i, eigenvalue(i) in dvdson    12    0.1049364855E+00
   i, eigenvalue(i) in dvdson    13    0.1063134622E+00
   i, eigenvalue(i) in dvdson    14    0.1295115012E+00
   i, eigenvalue(i) in dvdson    15    0.1296736383E+00
   i, eigenvalue(i) in dvdson    16    0.1298305163E+00
Eigenvalues of small (approximate) problem
   i, eigenvalue(i) in dvdson     1    0.8989358413E-01
   i, eigenvalue(i) in dvdson     2    0.9058578010E-01
   i, eigenvalue(i) in dvdson     3    0.9133946762E-01
   i, eigenvalue(i) in dvdson     4    0.9378058735E-01
   i, eigenvalue(i) in dvdson     5    0.9655099927E-01
   i, eigenvalue(i) in dvdson     6    0.9702087707E-01
   i, eigenvalue(i) in dvdson     7    0.1012232409E+00
   i, eigenvalue(i) in dvdson     8    0.1024903474E+00
   i, eigenvalue(i) in dvdson     9    0.1030290991E+00
   i, eigenvalue(i) in dvdson    10    0.1033118089E+00
   i, eigenvalue(i) in dvdson    11    0.1034526729E+00
   i, eigenvalue(i) in dvdson    12    0.1042020723E+00
   i, eigenvalue(i) in dvdson    13    0.1043488158E+00
   i, eigenvalue(i) in dvdson    14    0.1148505897E+00
   i, eigenvalue(i) in dvdson    15    0.1295238164E+00
   i, eigenvalue(i) in dvdson    16    0.1297548057E+00
 collapse basis         104          32
Eigenvalues of small (approximate) problem
   i, eigenvalue(i) in dvdson     1    0.8965302239E-01
   i, eigenvalue(i) in dvdson     2    0.9052852637E-01
   i, eigenvalue(i) in dvdson     3    0.9114815664E-01
   i, eigenvalue(i) in dvdson     4    0.9309299410E-01
   i, eigenvalue(i) in dvdson     5    0.9605272351E-01
   i, eigenvalue(i) in dvdson     6    0.9689435172E-01
   i, eigenvalue(i) in dvdson     7    0.1002327786E+00
   i, eigenvalue(i) in dvdson     8    0.1024315172E+00
   i, eigenvalue(i) in dvdson     9    0.1026620121E+00
   i, eigenvalue(i) in dvdson    10    0.1029172121E+00
   i, eigenvalue(i) in dvdson    11    0.1032780048E+00
   i, eigenvalue(i) in dvdson    12    0.1037825422E+00
   i, eigenvalue(i) in dvdson    13    0.1040432713E+00
   i, eigenvalue(i) in dvdson    14    0.1084248381E+00
   i, eigenvalue(i) in dvdson    15    0.1295014667E+00
   i, eigenvalue(i) in dvdson    16    0.1297062118E+00
Eigenvalues of small (approximate) problem
   i, eigenvalue(i) in dvdson     1    0.8943189000E-01
   i, eigenvalue(i) in dvdson     2    0.9032235951E-01
   i, eigenvalue(i) in dvdson     3    0.9066345355E-01
   i, eigenvalue(i) in dvdson     4    0.9092389216E-01
   i, eigenvalue(i) in dvdson     5    0.9519734948E-01
   i, eigenvalue(i) in dvdson     6    0.9604160439E-01
   i, eigenvalue(i) in dvdson     7    0.9936935202E-01
   i, eigenvalue(i) in dvdson     8    0.1019672894E+00
   i, eigenvalue(i) in dvdson     9    0.1022154402E+00
   i, eigenvalue(i) in dvdson    10    0.1023285071E+00
   i, eigenvalue(i) in dvdson    11    0.1024989865E+00
   i, eigenvalue(i) in dvdson    12    0.1033859866E+00
   i, eigenvalue(i) in dvdson    13    0.1034996158E+00
   i, eigenvalue(i) in dvdson    14    0.1037913694E+00
   i, eigenvalue(i) in dvdson    15    0.1293244986E+00
   i, eigenvalue(i) in dvdson    16    0.1294371887E+00
Eigenvalues of small (approximate) problem
   i, eigenvalue(i) in dvdson     1    0.8940923673E-01
   i, eigenvalue(i) in dvdson     2    0.9031943106E-01
   i, eigenvalue(i) in dvdson     3    0.9036311913E-01
   i, eigenvalue(i) in dvdson     4    0.9065921863E-01
   i, eigenvalue(i) in dvdson     5    0.9510599599E-01
   i, eigenvalue(i) in dvdson     6    0.9599064931E-01
   i, eigenvalue(i) in dvdson     7    0.9916643490E-01
   i, eigenvalue(i) in dvdson     8    0.1019474710E+00
   i, eigenvalue(i) in dvdson     9    0.1021876417E+00
   i, eigenvalue(i) in dvdson    10    0.1022037963E+00
   i, eigenvalue(i) in dvdson    11    0.1022944029E+00
   i, eigenvalue(i) in dvdson    12    0.1033629019E+00
   i, eigenvalue(i) in dvdson    13    0.1033804648E+00
   i, eigenvalue(i) in dvdson    14    0.1034829818E+00
   i, eigenvalue(i) in dvdson    15    0.1293180261E+00
   i, eigenvalue(i) in dvdson    16    0.1294248155E+00
 collapse basis         104          32
Eigenvalues of small (approximate) problem
   i, eigenvalue(i) in dvdson     1    0.8938665307E-01
   i, eigenvalue(i) in dvdson     2    0.9030544391E-01
   i, eigenvalue(i) in dvdson     3    0.9033459341E-01
   i, eigenvalue(i) in dvdson     4    0.9061384054E-01
   i, eigenvalue(i) in dvdson     5    0.9505076979E-01
   i, eigenvalue(i) in dvdson     6    0.9594916759E-01
   i, eigenvalue(i) in dvdson     7    0.9916175481E-01
   i, eigenvalue(i) in dvdson     8    0.1019361796E+00
   i, eigenvalue(i) in dvdson     9    0.1021691315E+00
   i, eigenvalue(i) in dvdson    10    0.1021779304E+00
   i, eigenvalue(i) in dvdson    11    0.1022649606E+00
   i, eigenvalue(i) in dvdson    12    0.1033496447E+00
   i, eigenvalue(i) in dvdson    13    0.1033745107E+00
   i, eigenvalue(i) in dvdson    14    0.1034677727E+00
   i, eigenvalue(i) in dvdson    15    0.1293068928E+00
   i, eigenvalue(i) in dvdson    16    0.1294079929E+00
Eigenvalues of small (approximate) problem
   i, eigenvalue(i) in dvdson     1    0.8937508783E-01
   i, eigenvalue(i) in dvdson     2    0.9027480025E-01
   i, eigenvalue(i) in dvdson     3    0.9027841824E-01
   i, eigenvalue(i) in dvdson     4    0.9050758760E-01
   i, eigenvalue(i) in dvdson     5    0.9498156298E-01
   i, eigenvalue(i) in dvdson     6    0.9572441898E-01
   i, eigenvalue(i) in dvdson     7    0.9913418323E-01
   i, eigenvalue(i) in dvdson     8    0.1018473358E+00
   i, eigenvalue(i) in dvdson     9    0.1021290882E+00
   i, eigenvalue(i) in dvdson    10    0.1021331446E+00
   i, eigenvalue(i) in dvdson    11    0.1021751273E+00
   i, eigenvalue(i) in dvdson    12    0.1032992789E+00
   i, eigenvalue(i) in dvdson    13    0.1033079749E+00
   i, eigenvalue(i) in dvdson    14    0.1033561216E+00
   i, eigenvalue(i) in dvdson    15    0.1292376987E+00
   i, eigenvalue(i) in dvdson    16    0.1293254416E+00
Eigenvalues of small (approximate) problem
   i, eigenvalue(i) in dvdson     1    0.8937488224E-01
   i, eigenvalue(i) in dvdson     2    0.9027389701E-01
   i, eigenvalue(i) in dvdson     3    0.9027716288E-01
   i, eigenvalue(i) in dvdson     4    0.9045277347E-01
   i, eigenvalue(i) in dvdson     5    0.9497604468E-01
   i, eigenvalue(i) in dvdson     6    0.9558512871E-01
   i, eigenvalue(i) in dvdson     7    0.9913306235E-01
   i, eigenvalue(i) in dvdson     8    0.1018460852E+00
   i, eigenvalue(i) in dvdson     9    0.1021235781E+00
   i, eigenvalue(i) in dvdson    10    0.1021301777E+00
   i, eigenvalue(i) in dvdson    11    0.1021495623E+00
   i, eigenvalue(i) in dvdson    12    0.1032895312E+00
   i, eigenvalue(i) in dvdson    13    0.1032984097E+00
   i, eigenvalue(i) in dvdson    14    0.1033045149E+00
   i, eigenvalue(i) in dvdson    15    0.1290573097E+00
   i, eigenvalue(i) in dvdson    16    0.1292467740E+00
 collapse basis         104          32
Eigenvalues of small (approximate) problem
   i, eigenvalue(i) in dvdson     1    0.8937345797E-01
   i, eigenvalue(i) in dvdson     2    0.9027274569E-01
   i, eigenvalue(i) in dvdson     3    0.9027544066E-01
   i, eigenvalue(i) in dvdson     4    0.9045053038E-01
   i, eigenvalue(i) in dvdson     5    0.9496390538E-01
   i, eigenvalue(i) in dvdson     6    0.9558152414E-01
   i, eigenvalue(i) in dvdson     7    0.9913213443E-01
   i, eigenvalue(i) in dvdson     8    0.1018444733E+00
   i, eigenvalue(i) in dvdson     9    0.1021230455E+00
   i, eigenvalue(i) in dvdson    10    0.1021270391E+00
   i, eigenvalue(i) in dvdson    11    0.1021492668E+00
   i, eigenvalue(i) in dvdson    12    0.1032878954E+00
   i, eigenvalue(i) in dvdson    13    0.1032967688E+00
   i, eigenvalue(i) in dvdson    14    0.1033035602E+00
   i, eigenvalue(i) in dvdson    15    0.1282797486E+00
   i, eigenvalue(i) in dvdson    16    0.1292376579E+00
Eigenvalues of small (approximate) problem
   i, eigenvalue(i) in dvdson     1    0.8937257839E-01
   i, eigenvalue(i) in dvdson     2    0.9026550756E-01
   i, eigenvalue(i) in dvdson     3    0.9026772333E-01
   i, eigenvalue(i) in dvdson     4    0.9043913986E-01
   i, eigenvalue(i) in dvdson     5    0.9495156913E-01
   i, eigenvalue(i) in dvdson     6    0.9556307065E-01
   i, eigenvalue(i) in dvdson     7    0.9912556101E-01
   i, eigenvalue(i) in dvdson     8    0.1018163201E+00
   i, eigenvalue(i) in dvdson     9    0.1021153782E+00
   i, eigenvalue(i) in dvdson    10    0.1021179483E+00
   i, eigenvalue(i) in dvdson    11    0.1021454197E+00
   i, eigenvalue(i) in dvdson    12    0.1032773803E+00
   i, eigenvalue(i) in dvdson    13    0.1032837549E+00
   i, eigenvalue(i) in dvdson    14    0.1032860417E+00
   i, eigenvalue(i) in dvdson    15    0.1242930900E+00
   i, eigenvalue(i) in dvdson    16    0.1291893381E+00
Eigenvalues of small (approximate) problem
   i, eigenvalue(i) in dvdson     1    0.8937255358E-01
   i, eigenvalue(i) in dvdson     2    0.9026514112E-01
   i, eigenvalue(i) in dvdson     3    0.9026700278E-01
   i, eigenvalue(i) in dvdson     4    0.9043642324E-01
   i, eigenvalue(i) in dvdson     5    0.9494716199E-01
   i, eigenvalue(i) in dvdson     6    0.9556098702E-01
   i, eigenvalue(i) in dvdson     7    0.9912527594E-01
   i, eigenvalue(i) in dvdson     8    0.1017971167E+00
   i, eigenvalue(i) in dvdson     9    0.1021152162E+00
   i, eigenvalue(i) in dvdson    10    0.1021159470E+00
   i, eigenvalue(i) in dvdson    11    0.1021452636E+00
   i, eigenvalue(i) in dvdson    12    0.1032762233E+00
   i, eigenvalue(i) in dvdson    13    0.1032828305E+00
   i, eigenvalue(i) in dvdson    14    0.1032852291E+00
   i, eigenvalue(i) in dvdson    15    0.1209704663E+00
   i, eigenvalue(i) in dvdson    16    0.1259840889E+00
 collapse basis         104          32
Eigenvalues of small (approximate) problem
   i, eigenvalue(i) in dvdson     1    0.8937241422E-01
   i, eigenvalue(i) in dvdson     2    0.9026479656E-01
   i, eigenvalue(i) in dvdson     3    0.9026685663E-01
   i, eigenvalue(i) in dvdson     4    0.9043616228E-01
   i, eigenvalue(i) in dvdson     5    0.9494701468E-01
   i, eigenvalue(i) in dvdson     6    0.9556076668E-01
   i, eigenvalue(i) in dvdson     7    0.9912510101E-01
   i, eigenvalue(i) in dvdson     8    0.1017970429E+00
   i, eigenvalue(i) in dvdson     9    0.1021149286E+00
   i, eigenvalue(i) in dvdson    10    0.1021154440E+00
   i, eigenvalue(i) in dvdson    11    0.1021451792E+00
   i, eigenvalue(i) in dvdson    12    0.1032760475E+00
   i, eigenvalue(i) in dvdson    13    0.1032821668E+00
   i, eigenvalue(i) in dvdson    14    0.1032849616E+00
   i, eigenvalue(i) in dvdson    15    0.1208504047E+00
   i, eigenvalue(i) in dvdson    16    0.1245622373E+00
Eigenvalues of small (approximate) problem
   i, eigenvalue(i) in dvdson     1    0.8937225284E-01
   i, eigenvalue(i) in dvdson     2    0.9026266020E-01
   i, eigenvalue(i) in dvdson     3    0.9026516451E-01
   i, eigenvalue(i) in dvdson     4    0.9043396107E-01
   i, eigenvalue(i) in dvdson     5    0.9494630719E-01
   i, eigenvalue(i) in dvdson     6    0.9555718419E-01
   i, eigenvalue(i) in dvdson     7    0.9912290879E-01
   i, eigenvalue(i) in dvdson     8    0.1017951854E+00
   i, eigenvalue(i) in dvdson     9    0.1021122204E+00
   i, eigenvalue(i) in dvdson    10    0.1021126295E+00
   i, eigenvalue(i) in dvdson    11    0.1021440164E+00
   i, eigenvalue(i) in dvdson    12    0.1032735660E+00
   i, eigenvalue(i) in dvdson    13    0.1032770110E+00
   i, eigenvalue(i) in dvdson    14    0.1032784769E+00
   i, eigenvalue(i) in dvdson    15    0.1194018187E+00
   i, eigenvalue(i) in dvdson    16    0.1203838528E+00
Eigenvalues of small (approximate) problem
   i, eigenvalue(i) in dvdson     1    0.8937224893E-01
   i, eigenvalue(i) in dvdson     2    0.9026208909E-01
   i, eigenvalue(i) in dvdson     3    0.9026513067E-01
   i, eigenvalue(i) in dvdson     4    0.9043354755E-01
   i, eigenvalue(i) in dvdson     5    0.9494618217E-01
   i, eigenvalue(i) in dvdson     6    0.9555691744E-01
   i, eigenvalue(i) in dvdson     7    0.9912278605E-01
   i, eigenvalue(i) in dvdson     8    0.1017951411E+00
   i, eigenvalue(i) in dvdson     9    0.1021111107E+00
   i, eigenvalue(i) in dvdson    10    0.1021124127E+00
   i, eigenvalue(i) in dvdson    11    0.1021439192E+00
   i, eigenvalue(i) in dvdson    12    0.1032727957E+00
   i, eigenvalue(i) in dvdson    13    0.1032732883E+00
   i, eigenvalue(i) in dvdson    14    0.1032737380E+00
   i, eigenvalue(i) in dvdson    15    0.1177850999E+00
   i, eigenvalue(i) in dvdson    16    0.1183626307E+00
 collapse basis         104          32
Eigenvalues of small (approximate) problem
   i, eigenvalue(i) in dvdson     1    0.8937222739E-01
   i, eigenvalue(i) in dvdson     2    0.9026206737E-01
   i, eigenvalue(i) in dvdson     3    0.9026510912E-01
   i, eigenvalue(i) in dvdson     4    0.9043349984E-01
   i, eigenvalue(i) in dvdson     5    0.9494616848E-01
   i, eigenvalue(i) in dvdson     6    0.9555688035E-01
   i, eigenvalue(i) in dvdson     7    0.9912273458E-01
   i, eigenvalue(i) in dvdson     8    0.1017951253E+00
   i, eigenvalue(i) in dvdson     9    0.1021110179E+00
   i, eigenvalue(i) in dvdson    10    0.1021123255E+00
   i, eigenvalue(i) in dvdson    11    0.1021439017E+00
   i, eigenvalue(i) in dvdson    12    0.1032727300E+00
   i, eigenvalue(i) in dvdson    13    0.1032732504E+00
   i, eigenvalue(i) in dvdson    14    0.1032737102E+00
   i, eigenvalue(i) in dvdson    15    0.1177233651E+00
   i, eigenvalue(i) in dvdson    16    0.1182673889E+00
Eigenvalues of small (approximate) problem
   i, eigenvalue(i) in dvdson     1    0.8937218558E-01
   i, eigenvalue(i) in dvdson     2    0.9026164811E-01
   i, eigenvalue(i) in dvdson     3    0.9026455274E-01
   i, eigenvalue(i) in dvdson     4    0.9043280741E-01
   i, eigenvalue(i) in dvdson     5    0.9494607873E-01
   i, eigenvalue(i) in dvdson     6    0.9555555906E-01
   i, eigenvalue(i) in dvdson     7    0.9912187966E-01
   i, eigenvalue(i) in dvdson     8    0.1017945583E+00
   i, eigenvalue(i) in dvdson     9    0.1021100741E+00
   i, eigenvalue(i) in dvdson    10    0.1021113910E+00
   i, eigenvalue(i) in dvdson    11    0.1021434523E+00
   i, eigenvalue(i) in dvdson    12    0.1032720937E+00
   i, eigenvalue(i) in dvdson    13    0.1032723406E+00
   i, eigenvalue(i) in dvdson    14    0.1032733234E+00
   i, eigenvalue(i) in dvdson    15    0.1172139644E+00
   i, eigenvalue(i) in dvdson    16    0.1177254353E+00
Eigenvalues of small (approximate) problem
   i, eigenvalue(i) in dvdson     1    0.8937218331E-01
   i, eigenvalue(i) in dvdson     2    0.9026159226E-01
   i, eigenvalue(i) in dvdson     3    0.9026453619E-01
   i, eigenvalue(i) in dvdson     4    0.9043267569E-01
   i, eigenvalue(i) in dvdson     5    0.9494606117E-01
   i, eigenvalue(i) in dvdson     6    0.9555511277E-01
   i, eigenvalue(i) in dvdson     7    0.9912182333E-01
   i, eigenvalue(i) in dvdson     8    0.1017945178E+00
   i, eigenvalue(i) in dvdson     9    0.1021097909E+00
   i, eigenvalue(i) in dvdson    10    0.1021105896E+00
   i, eigenvalue(i) in dvdson    11    0.1021434098E+00
   i, eigenvalue(i) in dvdson    12    0.1032713507E+00
   i, eigenvalue(i) in dvdson    13    0.1032721107E+00
   i, eigenvalue(i) in dvdson    14    0.1032733005E+00
   i, eigenvalue(i) in dvdson    15    0.1168959702E+00
   i, eigenvalue(i) in dvdson    16    0.1174152719E+00
 collapse basis         104          32
Eigenvalues of small (approximate) problem
   i, eigenvalue(i) in dvdson     1    0.8937218024E-01
   i, eigenvalue(i) in dvdson     2    0.9026158792E-01
   i, eigenvalue(i) in dvdson     3    0.9026453140E-01
   i, eigenvalue(i) in dvdson     4    0.9043265745E-01
   i, eigenvalue(i) in dvdson     5    0.9494605918E-01
   i, eigenvalue(i) in dvdson     6    0.9555510316E-01
   i, eigenvalue(i) in dvdson     7    0.9912181227E-01
   i, eigenvalue(i) in dvdson     8    0.1017945147E+00
   i, eigenvalue(i) in dvdson     9    0.1021097576E+00
   i, eigenvalue(i) in dvdson    10    0.1021105790E+00
   i, eigenvalue(i) in dvdson    11    0.1021434061E+00
   i, eigenvalue(i) in dvdson    12    0.1032713351E+00
   i, eigenvalue(i) in dvdson    13    0.1032721068E+00
   i, eigenvalue(i) in dvdson    14    0.1032732966E+00
   i, eigenvalue(i) in dvdson    15    0.1168545300E+00
   i, eigenvalue(i) in dvdson    16    0.1173905664E+00
 
 ============
 Timer stack:
 ------------
  1674689355.44  AMS
  1674689356.50  ADFEngine%Solve
  1674692889.00  Excitations
  1674692899.73  4
  1674692899.73  AllocDavidson
  1674692899.73  Loop
  1674692899.73  Lo2
  1674692900.85  In2
  1674692900.85  dvdsonhfso
  1674707050.98  dvdrvrhfso
  1675200731.61  addabshfso
  1675200731.61  Ophfso
  1675200731.61  Op
  1675207761.79  MatVecMul
  1675207762.55  CsmRspOp
  1675207762.55  pp
 ============

Process received SIGTERM
 WARNING: Nr of shared arrays in use at the end:           34
 Names of the Shared Arrays that have not been deleted
 projCoeff
 projCoeff
 projCoeff
 projCoeff
 projCoeff
 projCoeff
 activefrag%initialMOs%A%_A%eigbas
 activefrag%initialMOs%A%_A%eigbasr
 activefrag%initialMOs%A%_A%eigbasi
 activefrag%initialMOs%A%_A%eigbas
 activefrag%initialMOs%A%_A%eigbasr
 activefrag%initialMOs%A%_A%eigbasi
 grid%coords
 grid%w
 grid%distance2atoms
 grid%neighbors
 projCoeff
 fullGrid
 SerializedTensorsType
 SerializedTensorsType
 NewMMGridFunction%data4
 NewMMGridFunction%data4
 NewMMGridFunction%data4
 NewMMGridFunction%data4
 NewMMGridFunction%data4
 AllocDavidsonso:basis
 AllocDavidsonso:a2b
 dvdsonhfso:a1b
 activefrag%initialMOs%A%_A%eigbas
 activefrag%initialMOs%A%_A%eigbasr
 activefrag%initialMOs%A%_A%eigbasi
 projCoeff
 projCoeff
 fullGrid
