

 Parallel Execution: Process Information
 ==============================================================================
 Rank   Node Name                              NodeID   MyNodeRank  NodeMaster
    0   u-0-3.local                               0          0          0
    1   u-0-3.local                               0          1         -1
    2   u-0-3.local                               0          2         -1
    3   u-0-3.local                               0          3         -1
    4   u-0-3.local                               1          0          1
    5   u-0-3.local                               1          1         -1
    6   u-0-3.local                               1          2         -1
    7   u-0-3.local                               1          3         -1
    8   u-0-3.local                               2          0          2
    9   u-0-3.local                               2          1         -1
   10   u-0-3.local                               2          2         -1
   11   u-0-3.local                               2          3         -1
   12   u-0-3.local                               3          0          3
   13   u-0-3.local                               3          1         -1
   14   u-0-3.local                               3          2         -1
   15   u-0-3.local                               3          3         -1
 ==============================================================================


May use up to 31228MB of RAM as shared memory on node 0
May use up to 31250MB of RAM as shared memory on node 2
May use up to 31250MB of RAM as shared memory on node 3
May use up to 31250MB of RAM as shared memory on node 1

 *******************************************************************************
 *                                                                             *
 *  --------------------------------                                           *
 *   Amsterdam Modeling Suite (AMS)              2021.106                      *
 *  --------------------------------                                           *
 *                                               r99350 2021-12-03             *
 *                                                                             *
 *                                                                             *
 *                              =================                              *
 *                              |               |                              *
 *                              |     A M S     |                              *
 *                              |               |                              *
 *                              =================                              *
 *                                                                             *
 *                                                                             *
 *   Online information and documentation:  https://www.scm.com/support/       *
 *   E-mail:  support@scm.com   info@scm.com                                   *
 *                                                                             *
 *   Scientific publications using AMS results must be properly referenced     *
 *   See the User Manuals (or the web site) for recommended citations          *
 *   The terms and conditions of the End User License Agreement apply to       *
 *   the use of AMS, https://www.scm.com/license-terms/                        *
 *                                                                             *
 **********************  x86_64_linux_intel / intelmpi  ************************
 
 Licensed to: Dr. Val?rie Vallet / Laboratoire PhLAM UMR 8523 / Villeneuve d'Ascq Cedex / FRANCE 2023-01-20 17:43:01
 SCM User ID: u10325
  
 AMS 2021.106  RunTime: Jan25-2023 12:44:31  ShM Nodes: 4  Procs: 16

 AMS jobname: em-uo2_2cl_2phen.tddft-camb3lyp-COSMO.SO
 AMS jobid  : 2075615173

 Start   directory: /home/vallet/Bent-Uranyl/uo2_2cl_2phen/uo2_2cl_2phen/bent/geom-pbe0-d3-gp/ams-absorption-emission/fullkernel/
 Results directory: /home/vallet/Bent-Uranyl/uo2_2cl_2phen/uo2_2cl_2phen/bent/geom-pbe0-d3-gp/ams-absorption-emission/fullkernel/em-uo2_2cl_2phen.tddft-camb3lyp-COSMO.SO.results/
 Scratch directory: /state/partition2/vallet/923105.phlam-s-sakura/amstmp_em-uo2_2cl_2phen.tddft-camb3lyp-COSMO.SO_kid0.2075615173/


 Communication costs MPI_COMM_WORLD:     -1.710 usec per message,   0.0449 usec per 8-byte item
 Communication costs for intra-node:      0.403 usec per message,   0.0083 usec per 8-byte item

 RNG seed: -492403887 1772574477 -838696111 -1409987327 -1475527257 414221257 1665931374 -1702293423



                     *************************************************************************
                     *  ADF 2021.106  RunTime: Jan25-2023 12:44:31  ShM Nodes: 4  Procs: 16  *
                     *************************************************************************
  
       ****************************
       * SINGLE POINT CALCULATION *
       ****************************
 
--------
Geometry
--------
Formula: C24H16Cl2N4O2U
Atoms
  Index Symbol   x (angstrom)   y (angstrom)   z (angstrom)
      1      U     0.08237700     0.00695700     0.02067100       adf.R=1.86
      2      O     0.37779900    -0.28261400     1.75292300       adf.R=1.52
      3      O     0.36527400     0.29973800    -1.71313400       adf.R=1.52
      4      N     2.40816100     1.37095900     0.24736400       adf.R=1.55
      5      C     2.41059100     2.67101200     0.47384200       adf.R=1.70
      6      H     1.43344500     3.13368800     0.55772200       adf.R=1.20
      7      C     3.58132000     3.42630000     0.60089300       adf.R=1.70
      8      H     3.50816700     4.49013600     0.78653100       adf.R=1.20
      9      C     4.78979000     2.79752500     0.48625300       adf.R=1.70
     10      H     5.72232600     3.34422700     0.57745400       adf.R=1.20
     11      C     4.82320600     1.41600000     0.24567300       adf.R=1.70
     12      C     6.05162000     0.70637600     0.11681700       adf.R=1.70
     13      H     6.97920600     1.26024100     0.20895500       adf.R=1.20
     14      C     6.05842500    -0.62451100    -0.11468300       adf.R=1.70
     15      H     6.99162100    -1.16770500    -0.21346400       adf.R=1.20
     16      C     4.83734200    -1.34820100    -0.23468400       adf.R=1.70
     17      C     4.81805700    -2.73009800    -0.47466500       adf.R=1.70
     18      H     5.75612900    -3.26609000    -0.57242900       adf.R=1.20
     19      C     3.61609300    -3.37275200    -0.58037400       adf.R=1.70
     20      H     3.55382500    -4.43743700    -0.76511400       adf.R=1.20
     21      C     2.43771600    -2.63088400    -0.44524500       adf.R=1.70
     22      H     1.46537000    -3.10475100    -0.52213700       adf.R=1.20
     23      N     2.42199100    -1.33083500    -0.21924500       adf.R=1.55
     24      C     3.59948900    -0.68166700    -0.11294700       adf.R=1.70
     25      C     3.59224200     0.73534500     0.13258000       adf.R=1.70
     26     Cl    -0.82050300     2.48924800     0.43647900       adf.R=1.75
     27     Cl    -0.79496000    -2.48522800    -0.39051900       adf.R=1.75
     28      N    -2.30572800    -0.22675500     1.36061900       adf.R=1.55
     29      C    -2.29579200    -0.44131300     2.65935800       adf.R=1.70
     30      H    -1.31952200    -0.51231400     3.11944400       adf.R=1.20
     31      C    -3.45923700    -0.57377400     3.42419100       adf.R=1.70
     32      H    -3.37971900    -0.74946500     4.48946000       adf.R=1.20
     33      C    -4.67521400    -0.47740800     2.80294900       adf.R=1.70
     34      H    -5.60168500    -0.57413600     3.35882100       adf.R=1.20
     35      C    -4.71940800    -0.24916100     1.42046500       adf.R=1.70
     36      C    -5.94650000    -0.13706100     0.70355100       adf.R=1.70
     37      H    -6.87618300    -0.23275900     1.25358200       adf.R=1.20
     38      C    -5.95127800     0.08325400    -0.63011100       adf.R=1.70
     39      H    -6.88488400     0.16846600    -1.17519900       adf.R=1.20
     40      C    -4.72934800     0.20911800    -1.35352700       adf.R=1.70
     41      C    -4.69507100     0.43777100    -2.73622200       adf.R=1.70
     42      H    -5.62551300     0.52402000    -3.28716400       adf.R=1.20
     43      C    -3.48357300     0.54777300    -3.36391300       adf.R=1.70
     44      H    -3.41169300     0.72427600    -4.42959000       adf.R=1.20
     45      C    -2.31466800     0.42847500    -2.60526800       adf.R=1.70
     46      H    -1.34171900     0.51045100    -3.07053600       adf.R=1.20
     47      N    -2.31529100     0.21389300    -1.30649100       adf.R=1.55
     48      C    -3.49689200     0.10377900    -0.67715700       adf.R=1.70
     49      C    -3.49182500    -0.12997200     0.73757100       adf.R=1.70
 
Total System Charge             0.00000
Bonding info available!
 
 
----------------
ADF Engine Input
----------------
 
 Basis
 Type TZ2P
 Core None
 End
 AllPoints Yes
 XC
 libxc CAM-B3LYP
 End
 Relativity
 Level Spin-Orbit
 End
 Symmetry NOSYM
 Solvation
 Surf Delley
 Solv name=Water cav0=0.0 cav1=0.0067639
 Charged method=CONJ
 C-Mat POT
 SCF VAR ALL
 CSMRSP
 End
 Excitations
 Lowest 16
 NTO Yes
 Davidson
 End
 FullKernel Yes
 End
 

 Title: *** (NO TITLE) ***

 *** adf ***



 ===========================
 A T T A C H E D   F I L E S
 ===========================
  



 ===============================
 M O D E L   P A R A M E T E R S
 ===============================
  
 Range separated functional parameters:
 RANGESEP OMEGA=    0.330000 ALPHA=    0.190000 BETA=    0.460000 ERF-LONGRANGE 
                                                                                
   
 DENSITY FUNCTIONAL POTENTIAL (scf)

   *** Range Separated Functional ***

 Regions:
   LibXC version: 5. 1. 2
   Exchange-correlation  T T T T F F F T T F F F F F F F F F F F F
   HF parameter =   0.65000000
   LIBXC GAMMA=    0.330000 ALPHA=    0.650000 BETA=   -0.460000
   CAM version of B3LYP (Hybrid GGA)
[1] T. Yanai, D. P. Tew, and N. C. Handy, Chem. Phys. Lett. 393, 51 (2004)

 SPIN  (restricted / unrestr.)
    Molecule:                          Restricted                               
    Fragments:                         Restricted                               

 OTHER ASPECTS
    Relativistic Corrections:          Spin-Orbit (ZORA,MAPA)                  == Not Default ==

    Nuclear Charge Density Model:      Point Charge Nuclei                      
    Core Treatment:                    Frozen Orbital(s)                        

    Hyperfine or Zeeman Interaction:   ---                                      

 SOLVATION
-------------------------------------------

  The Delley construction of COSMO surface surface is calculated

       Division Level for Surface Triangles (NDIV)                  3
       Final Division Level for Triangles (NFDIV)                   1
       Radius of the Solvent (RSOL)                           1.93000 angstr
  Dielectric Constant (EPSL)                                 78.39000

       COSMO equation is solved iteratively-               conjugate-gradient

       Maximun of Iterations for Charges (NCIX)                  1000
       Criterion for Charge convergence (CCNV)                1.0E-08

  COSMO charges included variationally in SCF

       COSMO included at every SCF cycle

  Geometry-dependent empirical factor                         0.00000

  C-Matrix calculated in cspmtx

  In cspmtx, C-Matrix calculated using fitted potential

-------------------------------------------



 Fragment File(s)
 ----------------
 U:
         file : /home/vallet/Bent-Uranyl/uo2_2cl_2phen/uo2_2cl_2phen/bent/geom-pbe0-d3-gp/ams-absorption-emission/fullkernel/em-uo2_2cl_2phen.tddft-camb3lyp-COSMO.SO.results/t21.6C1485AF.U
         jobid: 0
         title: Uranium (TZ2P, all electron)
 O:
         file : /home/vallet/Bent-Uranyl/uo2_2cl_2phen/uo2_2cl_2phen/bent/geom-pbe0-d3-gp/ams-absorption-emission/fullkernel/em-uo2_2cl_2phen.tddft-camb3lyp-COSMO.SO.results/t21.1786ABF1.O
         jobid: 0
         title: Oxygen (TZ2P)
 N:
         file : /home/vallet/Bent-Uranyl/uo2_2cl_2phen/uo2_2cl_2phen/bent/geom-pbe0-d3-gp/ams-absorption-emission/fullkernel/em-uo2_2cl_2phen.tddft-camb3lyp-COSMO.SO.results/t21.3C40D2C.N
         jobid: 0
         title: Nitrogen (TZ2P)
 C:
         file : /home/vallet/Bent-Uranyl/uo2_2cl_2phen/uo2_2cl_2phen/bent/geom-pbe0-d3-gp/ams-absorption-emission/fullkernel/em-uo2_2cl_2phen.tddft-camb3lyp-COSMO.SO.results/t21.5D40A1EA.C
         jobid: 0
         title: Carbon (TZ2P)
 H:
         file : /home/vallet/Bent-Uranyl/uo2_2cl_2phen/uo2_2cl_2phen/bent/geom-pbe0-d3-gp/ams-absorption-emission/fullkernel/em-uo2_2cl_2phen.tddft-camb3lyp-COSMO.SO.results/t21.49E308CA.H
         jobid: 0
         title: Hydrogen (TZ2P)
 Cl:
         file : /home/vallet/Bent-Uranyl/uo2_2cl_2phen/uo2_2cl_2phen/bent/geom-pbe0-d3-gp/ams-absorption-emission/fullkernel/em-uo2_2cl_2phen.tddft-camb3lyp-COSMO.SO.results/t21.37D265EA.Cl
         jobid: 0
         title: Chlorine (TZ2P)



 ===============
 G E O M E T R Y  ***  3D  Molecule  ***
 ===============
  

 ATOMS
 =====                            X Y Z                    CHARGE                     RADIUS
                                (Angstrom)             Nucl     +Core       At.Mass (Angstrom)
                       --------------------------    ----------------       ------- ----------
    1  U               0.0824    0.0070    0.0207     92.00     92.00      238.0508    1.8600
    2  O               0.3778   -0.2826    1.7529      8.00      8.00       15.9949    1.5200
    3  O               0.3653    0.2997   -1.7131      8.00      8.00       15.9949    1.5200
    4  N               2.4082    1.3710    0.2474      7.00      7.00       14.0031    1.5500
    5  C               2.4106    2.6710    0.4738      6.00      6.00       12.0000    1.7000
    6  H               1.4334    3.1337    0.5577      1.00      1.00        1.0078    1.2000
    7  C               3.5813    3.4263    0.6009      6.00      6.00       12.0000    1.7000
    8  H               3.5082    4.4901    0.7865      1.00      1.00        1.0078    1.2000
    9  C               4.7898    2.7975    0.4863      6.00      6.00       12.0000    1.7000
   10  H               5.7223    3.3442    0.5775      1.00      1.00        1.0078    1.2000
   11  C               4.8232    1.4160    0.2457      6.00      6.00       12.0000    1.7000
   12  C               6.0516    0.7064    0.1168      6.00      6.00       12.0000    1.7000
   13  H               6.9792    1.2602    0.2090      1.00      1.00        1.0078    1.2000
   14  C               6.0584   -0.6245   -0.1147      6.00      6.00       12.0000    1.7000
   15  H               6.9916   -1.1677   -0.2135      1.00      1.00        1.0078    1.2000
   16  C               4.8373   -1.3482   -0.2347      6.00      6.00       12.0000    1.7000
   17  C               4.8181   -2.7301   -0.4747      6.00      6.00       12.0000    1.7000
   18  H               5.7561   -3.2661   -0.5724      1.00      1.00        1.0078    1.2000
   19  C               3.6161   -3.3728   -0.5804      6.00      6.00       12.0000    1.7000
   20  H               3.5538   -4.4374   -0.7651      1.00      1.00        1.0078    1.2000
   21  C               2.4377   -2.6309   -0.4452      6.00      6.00       12.0000    1.7000
   22  H               1.4654   -3.1048   -0.5221      1.00      1.00        1.0078    1.2000
   23  N               2.4220   -1.3308   -0.2192      7.00      7.00       14.0031    1.5500
   24  C               3.5995   -0.6817   -0.1129      6.00      6.00       12.0000    1.7000
   25  C               3.5922    0.7353    0.1326      6.00      6.00       12.0000    1.7000
   26  Cl             -0.8205    2.4892    0.4365     17.00     17.00       34.9689    1.7500
   27  Cl             -0.7950   -2.4852   -0.3905     17.00     17.00       34.9689    1.7500
   28  N              -2.3057   -0.2268    1.3606      7.00      7.00       14.0031    1.5500
   29  C              -2.2958   -0.4413    2.6594      6.00      6.00       12.0000    1.7000
   30  H              -1.3195   -0.5123    3.1194      1.00      1.00        1.0078    1.2000
   31  C              -3.4592   -0.5738    3.4242      6.00      6.00       12.0000    1.7000
   32  H              -3.3797   -0.7495    4.4895      1.00      1.00        1.0078    1.2000
   33  C              -4.6752   -0.4774    2.8029      6.00      6.00       12.0000    1.7000
   34  H              -5.6017   -0.5741    3.3588      1.00      1.00        1.0078    1.2000
   35  C              -4.7194   -0.2492    1.4205      6.00      6.00       12.0000    1.7000
   36  C              -5.9465   -0.1371    0.7036      6.00      6.00       12.0000    1.7000
   37  H              -6.8762   -0.2328    1.2536      1.00      1.00        1.0078    1.2000
   38  C              -5.9513    0.0833   -0.6301      6.00      6.00       12.0000    1.7000
   39  H              -6.8849    0.1685   -1.1752      1.00      1.00        1.0078    1.2000
   40  C              -4.7293    0.2091   -1.3535      6.00      6.00       12.0000    1.7000
   41  C              -4.6951    0.4378   -2.7362      6.00      6.00       12.0000    1.7000
   42  H              -5.6255    0.5240   -3.2872      1.00      1.00        1.0078    1.2000
   43  C              -3.4836    0.5478   -3.3639      6.00      6.00       12.0000    1.7000
   44  H              -3.4117    0.7243   -4.4296      1.00      1.00        1.0078    1.2000
   45  C              -2.3147    0.4285   -2.6053      6.00      6.00       12.0000    1.7000
   46  H              -1.3417    0.5105   -3.0705      1.00      1.00        1.0078    1.2000
   47  N              -2.3153    0.2139   -1.3065      7.00      7.00       14.0031    1.5500
   48  C              -3.4969    0.1038   -0.6772      6.00      6.00       12.0000    1.7000
   49  C              -3.4918   -0.1300    0.7376      6.00      6.00       12.0000    1.7000


 FRAGMENTS
 =========                                     Atoms in this Fragment     Cart. coord.s (Angstrom)
                                               -------------------------------------------------------
    1  U                                                 1  U            0.0824    0.0070    0.0207
    2  O                                                 2  O            0.3778   -0.2826    1.7529
    3  O                                                 3  O            0.3653    0.2997   -1.7131
    4  N                                                 4  N            2.4082    1.3710    0.2474
    5  N                                                23  N            2.4220   -1.3308   -0.2192
    6  N                                                28  N           -2.3057   -0.2268    1.3606
    7  N                                                47  N           -2.3153    0.2139   -1.3065
    8  C                                                 5  C            2.4106    2.6710    0.4738
    9  C                                                 7  C            3.5813    3.4263    0.6009
   10  C                                                 9  C            4.7898    2.7975    0.4863
   11  C                                                11  C            4.8232    1.4160    0.2457
   12  C                                                12  C            6.0516    0.7064    0.1168
   13  C                                                14  C            6.0584   -0.6245   -0.1147
   14  C                                                16  C            4.8373   -1.3482   -0.2347
   15  C                                                17  C            4.8181   -2.7301   -0.4747
   16  C                                                19  C            3.6161   -3.3728   -0.5804
   17  C                                                21  C            2.4377   -2.6309   -0.4452
   18  C                                                24  C            3.5995   -0.6817   -0.1129
   19  C                                                25  C            3.5922    0.7353    0.1326
   20  C                                                29  C           -2.2958   -0.4413    2.6594
   21  C                                                31  C           -3.4592   -0.5738    3.4242
   22  C                                                33  C           -4.6752   -0.4774    2.8029
   23  C                                                35  C           -4.7194   -0.2492    1.4205
   24  C                                                36  C           -5.9465   -0.1371    0.7036
   25  C                                                38  C           -5.9513    0.0833   -0.6301
   26  C                                                40  C           -4.7293    0.2091   -1.3535
   27  C                                                41  C           -4.6951    0.4378   -2.7362
   28  C                                                43  C           -3.4836    0.5478   -3.3639
   29  C                                                45  C           -2.3147    0.4285   -2.6053
   30  C                                                48  C           -3.4969    0.1038   -0.6772
   31  C                                                49  C           -3.4918   -0.1300    0.7376
   32  H                                                 6  H            1.4334    3.1337    0.5577
   33  H                                                 8  H            3.5082    4.4901    0.7865
   34  H                                                10  H            5.7223    3.3442    0.5775
   35  H                                                13  H            6.9792    1.2602    0.2090
   36  H                                                15  H            6.9916   -1.1677   -0.2135
   37  H                                                18  H            5.7561   -3.2661   -0.5724
   38  H                                                20  H            3.5538   -4.4374   -0.7651
   39  H                                                22  H            1.4654   -3.1048   -0.5221
   40  H                                                30  H           -1.3195   -0.5123    3.1194
   41  H                                                32  H           -3.3797   -0.7495    4.4895
   42  H                                                34  H           -5.6017   -0.5741    3.3588
   43  H                                                37  H           -6.8762   -0.2328    1.2536
   44  H                                                39  H           -6.8849    0.1685   -1.1752
   45  H                                                42  H           -5.6255    0.5240   -3.2872
   46  H                                                44  H           -3.4117    0.7243   -4.4296
   47  H                                                46  H           -1.3417    0.5105   -3.0705
   48  Cl                                               26  Cl          -0.8205    2.4892    0.4365
   49  Cl                                               27  Cl          -0.7950   -2.4852   -0.3905



 =====================================
 S Y M M E T R Y ,   E L E C T R O N S
 =====================================
  
 Symmetry: NOSYM

 Double Group Irreducible Representations (spinor symmetry)
 -----------------------------------------------------------
 A1/2

 Symmetry is NOT used when fitting density


 Configuration of Valence Electrons
 ==================================
 ( determined in the SCF procedure )

 Total:   330

 Net Charge: 0 (Nuclei minus Electrons)

 Aufbau principle for MO occupations will be applied through SCF cycle no.     150
 Thereafter, the program will assign electrons to MOs that are spatially
 similar to the occupied MOs in a "reference" cycle ("KeepOrbitals").
 The reference cycle is always the PREVIOUS cycle: it will evolve with
 the SCF procedure.
1
 ***************************************************************************************************



                                      ****************************************
                                      *  B U I L D : (Fragments, Functions)  *
                                      ****************************************
  

 Total nr. of (C)SFOs (summation over all irreps) :  1159

 Specify PRINT SFO in the input file to get a full list

 Nr. of SFOs for ir.rep.           A :  1159



 ================================
 (Slater-type)  F U N C T I O N S  ***  (Basis and Fit)  ***
 ================================
  

 Atom Type    1  (U)
 ==============

 Valence Basis Sets:  43
 -----------------------
   1 S 1060.000000
   1 S  245.000000
   1 S  108.800000
   2 S  134.900000
   2 S   47.200000
   3 S   60.000000
   3 S   25.900000
   4 S   15.800000
   4 S   11.100000
   5 S   10.450000
   5 S    7.250000
   6 S    5.000000
   6 S    3.300000
   7 S    2.350000
   7 S    1.550000
   7 S    1.020000
   2 P  245.000000
   2 P   85.500000
   2 P   44.200000
   3 P   25.100000
   3 P   18.100000
   4 P   17.900000
   4 P   12.300000
   5 P    8.650000
   5 P    6.000000
   6 P    4.450000
   6 P    3.000000
   6 P    2.100000
   3 D   33.250000
   3 D   22.050000
   4 D   15.250000
   4 D   10.550000
   5 D    7.250000
   5 D    4.650000
   6 D    2.900000
   6 D    1.600000
   6 D    0.880000
   4 F   17.450000
   4 F    9.600000
   5 F    5.800000
   5 F    3.000000
   5 F    1.390000
   7 P    1.550000

 Charge Fitting Sets (for the computation of the Coulomb Potential):  87
 -----------------------------------------------------------------------
   1 S 2120.000000
   1 S 1594.965000
   1 S 1199.960000
   1 S  902.780000
   1 S  679.200000
   1 S  510.990000
   1 S  384.440000
   1 S  289.230000
   1 S  217.600000
   1 S  129.260000
   2 S  142.240000
   2 S   95.100000
   3 S   93.370000
   3 S   66.470000
   4 S   62.580000
   4 S   46.380000
   5 S   42.820000
   5 S   32.660000
   6 S   29.850000
   6 S   23.270000
   7 S   21.150000
   7 S   16.770000
   8 S   15.210000
   8 S   12.230000
   9 S   11.070000
   9 S    9.010000
  10 S    8.150000
  10 S    6.700000
  11 S    6.070000
  11 S    5.030000
  12 S    4.550000
  12 S    3.810000
  12 S    3.180000
  13 S    2.880000
  13 S    2.420000
  13 S    2.040000
   2 P  153.000000
   3 P  127.690000
   4 P  104.620000
   5 P   85.360000
   6 P   69.720000
   7 P   57.130000
   7 P   40.980000
   8 P   33.710000
   8 P   24.670000
   9 P   20.380000
   9 P   15.180000
  10 P   12.590000
  10 P    9.510000
  11 P    7.920000
  11 P    6.060000
  12 P    5.070000
  12 P    3.920000
  13 P    3.290000
  13 P    2.570000
   3 D  130.850000
   4 D   91.890000
   5 D   65.340000
   6 D   47.080000
   7 D   34.350000
   8 D   25.360000
   9 D   18.910000
   9 D   12.740000
  10 D    9.600000
  10 D    6.590000
  11 D    5.010000
  11 D    3.500000
  12 D    2.680000
  12 D    1.900000
   4 F  118.400000
   5 F   72.780000
   6 F   45.920000
   7 F   29.630000
   8 F   19.500000
   9 F   13.050000
  10 F    8.870000
  10 F    5.510000
  11 F    3.800000
  11 F    2.410000
   5 G   53.800000
   6 G   31.220000
   7 G   18.640000
   8 G   11.410000
   9 G    7.140000
  10 G    4.550000
  11 G    2.950000
  11 G    1.760000

 Atom Type    2  (O)
 ==============

 Valence Basis Sets:  10
 -----------------------
   1 S    9.800000
   1 S    6.800000
   2 S    7.580000
   2 S    2.880000
   2 S    1.720000
   2 P    4.080000
   2 P    2.080000
   2 P    1.120000
   3 D    2.000000
   4 F    3.000000

 Charge Fitting Sets (for the computation of the Coulomb Potential):  22
 -----------------------------------------------------------------------
   1 S   19.600000
   2 S   22.600000
   2 S   15.680000
   2 S   10.890000
   2 S    7.560000
   3 S    7.690000
   3 S    5.650000
   3 S    4.150000
   3 S    3.050000
   3 S    2.240000
   2 P   12.860000
   2 P    7.680000
   3 P    6.780000
   3 P    4.390000
   3 P    2.840000
   3 D    8.800000
   3 D    5.580000
   3 D    3.530000
   3 D    2.240000
   4 F    6.200000
   4 F    3.700000
   5 G    4.500000

 Atom Type    3  (N)
 ==============

 Valence Basis Sets:  10
 -----------------------
   1 S    8.740000
   1 S    5.900000
   2 S    5.150000
   2 S    2.500000
   2 S    1.500000
   2 P    3.680000
   2 P    1.880000
   2 P    1.000000
   3 D    2.200000
   4 F    3.300000

 Charge Fitting Sets (for the computation of the Coulomb Potential):  22
 -----------------------------------------------------------------------
   1 S   17.480000
   2 S   20.150000
   2 S   13.990000
   2 S    9.710000
   2 S    6.740000
   3 S    6.860000
   3 S    5.040000
   3 S    3.700000
   3 S    2.720000
   3 S    2.000000
   2 P   11.320000
   2 P    6.730000
   3 P    5.920000
   3 P    3.820000
   3 P    2.460000
   3 D    8.100000
   3 D    5.080000
   3 D    3.190000
   3 D    2.000000
   4 F    5.800000
   4 F    3.600000
   5 G    4.500000

 Atom Type    4  (C)
 ==============

 Valence Basis Sets:  10
 -----------------------
   1 S    7.680000
   1 S    5.000000
   2 S    1.280000
   2 S    2.100000
   2 S    4.600000
   2 P    0.820000
   2 P    1.480000
   2 P    2.940000
   3 D    2.200000
   4 F    3.300000

 Charge Fitting Sets (for the computation of the Coulomb Potential):  22
 -----------------------------------------------------------------------
   1 S   15.360000
   2 S   17.530000
   2 S   12.070000
   2 S    8.310000
   2 S    5.730000
   3 S    5.780000
   3 S    4.220000
   3 S    3.080000
   3 S    2.250000
   3 S    1.640000
   2 P    9.880000
   2 P    5.800000
   3 P    5.050000
   3 P    3.230000
   3 P    2.060000
   3 D    7.200000
   3 D    4.400000
   3 D    2.690000
   3 D    1.640000
   4 F    5.400000
   4 F    3.550000
   5 G    4.500000

 Atom Type    5  (H)
 ==============

 Valence Basis Sets:   5
 -----------------------
   1 S    0.690000
   1 S    0.920000
   1 S    1.580000
   2 P    1.250000
   3 D    2.500000

 Charge Fitting Sets (for the computation of the Coulomb Potential):  11
 -----------------------------------------------------------------------
   1 S    3.160000
   1 S    2.090000
   1 S    1.380000
   2 S    1.500000
   2 P    4.000000
   2 P    2.650000
   2 P    1.750000
   3 D    4.000000
   3 D    2.500000
   4 F    3.000000
   5 G    4.000000

 Atom Type    6  (Cl)
 ==============

 Valence Basis Sets:  14
 -----------------------
   1 S   20.300000
   1 S   15.250000
   2 S    6.250000
   2 S    4.450000
   2 P    8.850000
   2 P    5.050000
   3 S    3.450000
   3 S    2.300000
   3 S    1.600000
   3 P    3.350000
   3 P    2.050000
   3 P    1.200000
   3 D    2.000000
   4 F    2.000000

 Charge Fitting Sets (for the computation of the Coulomb Potential):  30
 -----------------------------------------------------------------------
   1 S   40.600000
   1 S   24.830000
   2 S   28.080000
   2 S   19.200000
   3 S   19.250000
   3 S   13.970000
   3 S   10.130000
   4 S    9.710000
   4 S    7.320000
   4 S    5.510000
   5 S    5.170000
   5 S    4.000000
   5 S    3.100000
   5 S    2.400000
   2 P   29.150000
   3 P   21.740000
   4 P   16.160000
   4 P    9.600000
   5 P    7.180000
   5 P    4.480000
   5 P    2.800000
   3 D   21.950000
   4 D   15.750000
   4 D    9.040000
   5 D    6.550000
   5 D    3.960000
   5 D    2.400000
   4 F    5.000000
   4 F    3.000000
   5 G    3.500000


 BAS: List of all Elementary Cartesian Basis Functions
 =====================================================

 The numbering in the list below (to the right of the function characteristics) is referred
 to in print-outs of MO eigenvectors and Mulliken populations in the BAS representation
 (as contrasted to the SFO representation).

 Notes:
 1. The functions are characterized by a polynomial prefactor (powers of x,y,z and r) and
    an exponential decay factor alpha.
 2. Since the basis sets are specific for an atom TYPE, the individual functions occur on
    all atoms of that type.
 3. The word 'Core' in the left margin signals that it is a Core Function (CF) : not a
    degree of freedom in the valence set, but only used to ensure orthogonalization of
    the other valence basis functions on the frozen Core Orbitals.


 (power of) X  Y  Z  R     Alpha  on Atom
            ==========     =====     ==========

 U                                    1
                                  ---------------------------------------------------------------------------
            0  0  0  0  1060.000      1
            0  0  0  0   245.000      2
            0  0  0  0   108.800      3
            0  0  0  1   134.900      4
            0  0  0  1    47.200      5
            0  0  0  2    60.000      6
            0  0  0  2    25.900      7
            0  0  0  3    15.800      8
            0  0  0  3    11.100      9
            0  0  0  4    10.450     10
            0  0  0  4     7.250     11
            0  0  0  5     5.000     12
            0  0  0  5     3.300     13
            0  0  0  6     2.350     14
            0  0  0  6     1.550     15
            0  0  0  6     1.020     16
            1  0  0  0   245.000     17
            0  1  0  0   245.000     18
            0  0  1  0   245.000     19
            1  0  0  0    85.500     20
            0  1  0  0    85.500     21
            0  0  1  0    85.500     22
            1  0  0  0    44.200     23
            0  1  0  0    44.200     24
            0  0  1  0    44.200     25
            1  0  0  1    25.100     26
            0  1  0  1    25.100     27
            0  0  1  1    25.100     28
            1  0  0  1    18.100     29
            0  1  0  1    18.100     30
            0  0  1  1    18.100     31
            1  0  0  2    17.900     32
            0  1  0  2    17.900     33
            0  0  1  2    17.900     34
            1  0  0  2    12.300     35
            0  1  0  2    12.300     36
            0  0  1  2    12.300     37
            1  0  0  3     8.650     38
            0  1  0  3     8.650     39
            0  0  1  3     8.650     40
            1  0  0  3     6.000     41
            0  1  0  3     6.000     42
            0  0  1  3     6.000     43
            1  0  0  4     4.450     44
            0  1  0  4     4.450     45
            0  0  1  4     4.450     46
            1  0  0  4     3.000     47
            0  1  0  4     3.000     48
            0  0  1  4     3.000     49
            1  0  0  4     2.100     50
            0  1  0  4     2.100     51
            0  0  1  4     2.100     52
            2  0  0  0    33.250     53
            1  1  0  0    33.250     54
            1  0  1  0    33.250     55
            0  2  0  0    33.250     56
            0  1  1  0    33.250     57
            0  0  2  0    33.250     58
            2  0  0  0    22.050     59
            1  1  0  0    22.050     60
            1  0  1  0    22.050     61
            0  2  0  0    22.050     62
            0  1  1  0    22.050     63
            0  0  2  0    22.050     64
            2  0  0  1    15.250     65
            1  1  0  1    15.250     66
            1  0  1  1    15.250     67
            0  2  0  1    15.250     68
            0  1  1  1    15.250     69
            0  0  2  1    15.250     70
            2  0  0  1    10.550     71
            1  1  0  1    10.550     72
            1  0  1  1    10.550     73
            0  2  0  1    10.550     74
            0  1  1  1    10.550     75
            0  0  2  1    10.550     76
            2  0  0  2     7.250     77
            1  1  0  2     7.250     78
            1  0  1  2     7.250     79
            0  2  0  2     7.250     80
            0  1  1  2     7.250     81
            0  0  2  2     7.250     82
            2  0  0  2     4.650     83
            1  1  0  2     4.650     84
            1  0  1  2     4.650     85
            0  2  0  2     4.650     86
            0  1  1  2     4.650     87
            0  0  2  2     4.650     88
            2  0  0  3     2.900     89
            1  1  0  3     2.900     90
            1  0  1  3     2.900     91
            0  2  0  3     2.900     92
            0  1  1  3     2.900     93
            0  0  2  3     2.900     94
            2  0  0  3     1.600     95
            1  1  0  3     1.600     96
            1  0  1  3     1.600     97
            0  2  0  3     1.600     98
            0  1  1  3     1.600     99
            0  0  2  3     1.600    100
            2  0  0  3     0.880    101
            1  1  0  3     0.880    102
            1  0  1  3     0.880    103
            0  2  0  3     0.880    104
            0  1  1  3     0.880    105
            0  0  2  3     0.880    106
            3  0  0  0    17.450    107
            2  1  0  0    17.450    108
            2  0  1  0    17.450    109
            1  2  0  0    17.450    110
            1  1  1  0    17.450    111
            1  0  2  0    17.450    112
            0  3  0  0    17.450    113
            0  2  1  0    17.450    114
            0  1  2  0    17.450    115
            0  0  3  0    17.450    116
            3  0  0  0     9.600    117
            2  1  0  0     9.600    118
            2  0  1  0     9.600    119
            1  2  0  0     9.600    120
            1  1  1  0     9.600    121
            1  0  2  0     9.600    122
            0  3  0  0     9.600    123
            0  2  1  0     9.600    124
            0  1  2  0     9.600    125
            0  0  3  0     9.600    126
            3  0  0  1     5.800    127
            2  1  0  1     5.800    128
            2  0  1  1     5.800    129
            1  2  0  1     5.800    130
            1  1  1  1     5.800    131
            1  0  2  1     5.800    132
            0  3  0  1     5.800    133
            0  2  1  1     5.800    134
            0  1  2  1     5.800    135
            0  0  3  1     5.800    136
            3  0  0  1     3.000    137
            2  1  0  1     3.000    138
            2  0  1  1     3.000    139
            1  2  0  1     3.000    140
            1  1  1  1     3.000    141
            1  0  2  1     3.000    142
            0  3  0  1     3.000    143
            0  2  1  1     3.000    144
            0  1  2  1     3.000    145
            0  0  3  1     3.000    146
            3  0  0  1     1.390    147
            2  1  0  1     1.390    148
            2  0  1  1     1.390    149
            1  2  0  1     1.390    150
            1  1  1  1     1.390    151
            1  0  2  1     1.390    152
            0  3  0  1     1.390    153
            0  2  1  1     1.390    154
            0  1  2  1     1.390    155
            0  0  3  1     1.390    156
            1  0  0  5     1.550    157
            0  1  0  5     1.550    158
            0  0  1  5     1.550    159

 O                                    2    3
                                  ---------------------------------------------------------------------------
            0  0  0  0     9.800    160  190
            0  0  0  0     6.800    161  191
            0  0  0  1     7.580    162  192
            0  0  0  1     2.880    163  193
            0  0  0  1     1.720    164  194
            1  0  0  0     4.080    165  195
            0  1  0  0     4.080    166  196
            0  0  1  0     4.080    167  197
            1  0  0  0     2.080    168  198
            0  1  0  0     2.080    169  199
            0  0  1  0     2.080    170  200
            1  0  0  0     1.120    171  201
            0  1  0  0     1.120    172  202
            0  0  1  0     1.120    173  203
            2  0  0  0     2.000    174  204
            1  1  0  0     2.000    175  205
            1  0  1  0     2.000    176  206
            0  2  0  0     2.000    177  207
            0  1  1  0     2.000    178  208
            0  0  2  0     2.000    179  209
            3  0  0  0     3.000    180  210
            2  1  0  0     3.000    181  211
            2  0  1  0     3.000    182  212
            1  2  0  0     3.000    183  213
            1  1  1  0     3.000    184  214
            1  0  2  0     3.000    185  215
            0  3  0  0     3.000    186  216
            0  2  1  0     3.000    187  217
            0  1  2  0     3.000    188  218
            0  0  3  0     3.000    189  219

 N                                    4    5    6    7
                                  ---------------------------------------------------------------------------
            0  0  0  0     8.740    220  250  280  310
            0  0  0  0     5.900    221  251  281  311
            0  0  0  1     5.150    222  252  282  312
            0  0  0  1     2.500    223  253  283  313
            0  0  0  1     1.500    224  254  284  314
            1  0  0  0     3.680    225  255  285  315
            0  1  0  0     3.680    226  256  286  316
            0  0  1  0     3.680    227  257  287  317
            1  0  0  0     1.880    228  258  288  318
            0  1  0  0     1.880    229  259  289  319
            0  0  1  0     1.880    230  260  290  320
            1  0  0  0     1.000    231  261  291  321
            0  1  0  0     1.000    232  262  292  322
            0  0  1  0     1.000    233  263  293  323
            2  0  0  0     2.200    234  264  294  324
            1  1  0  0     2.200    235  265  295  325
            1  0  1  0     2.200    236  266  296  326
            0  2  0  0     2.200    237  267  297  327
            0  1  1  0     2.200    238  268  298  328
            0  0  2  0     2.200    239  269  299  329
            3  0  0  0     3.300    240  270  300  330
            2  1  0  0     3.300    241  271  301  331
            2  0  1  0     3.300    242  272  302  332
            1  2  0  0     3.300    243  273  303  333
            1  1  1  0     3.300    244  274  304  334
            1  0  2  0     3.300    245  275  305  335
            0  3  0  0     3.300    246  276  306  336
            0  2  1  0     3.300    247  277  307  337
            0  1  2  0     3.300    248  278  308  338
            0  0  3  0     3.300    249  279  309  339

 C                                    8    9   10   11   12   13   14   15   16   17   18   19   20   21   22
                                     23   24   25   26   27   28   29   30   31
                                  ---------------------------------------------------------------------------
            0  0  0  0     7.680    340  370  400  430  460  490  520  550  580  610  640  670  700  730  760
                                    790  820  850  880  910  940  970 1000 1030
            0  0  0  0     5.000    341  371  401  431  461  491  521  551  581  611  641  671  701  731  761
                                    791  821  851  881  911  941  971 1001 1031
            0  0  0  1     1.280    342  372  402  432  462  492  522  552  582  612  642  672  702  732  762
                                    792  822  852  882  912  942  972 1002 1032
            0  0  0  1     2.100    343  373  403  433  463  493  523  553  583  613  643  673  703  733  763
                                    793  823  853  883  913  943  973 1003 1033
            0  0  0  1     4.600    344  374  404  434  464  494  524  554  584  614  644  674  704  734  764
                                    794  824  854  884  914  944  974 1004 1034
            1  0  0  0     0.820    345  375  405  435  465  495  525  555  585  615  645  675  705  735  765
                                    795  825  855  885  915  945  975 1005 1035
            0  1  0  0     0.820    346  376  406  436  466  496  526  556  586  616  646  676  706  736  766
                                    796  826  856  886  916  946  976 1006 1036
            0  0  1  0     0.820    347  377  407  437  467  497  527  557  587  617  647  677  707  737  767
                                    797  827  857  887  917  947  977 1007 1037
            1  0  0  0     1.480    348  378  408  438  468  498  528  558  588  618  648  678  708  738  768
                                    798  828  858  888  918  948  978 1008 1038
            0  1  0  0     1.480    349  379  409  439  469  499  529  559  589  619  649  679  709  739  769
                                    799  829  859  889  919  949  979 1009 1039
            0  0  1  0     1.480    350  380  410  440  470  500  530  560  590  620  650  680  710  740  770
                                    800  830  860  890  920  950  980 1010 1040
            1  0  0  0     2.940    351  381  411  441  471  501  531  561  591  621  651  681  711  741  771
                                    801  831  861  891  921  951  981 1011 1041
            0  1  0  0     2.940    352  382  412  442  472  502  532  562  592  622  652  682  712  742  772
                                    802  832  862  892  922  952  982 1012 1042
            0  0  1  0     2.940    353  383  413  443  473  503  533  563  593  623  653  683  713  743  773
                                    803  833  863  893  923  953  983 1013 1043
            2  0  0  0     2.200    354  384  414  444  474  504  534  564  594  624  654  684  714  744  774
                                    804  834  864  894  924  954  984 1014 1044
            1  1  0  0     2.200    355  385  415  445  475  505  535  565  595  625  655  685  715  745  775
                                    805  835  865  895  925  955  985 1015 1045
            1  0  1  0     2.200    356  386  416  446  476  506  536  566  596  626  656  686  716  746  776
                                    806  836  866  896  926  956  986 1016 1046
            0  2  0  0     2.200    357  387  417  447  477  507  537  567  597  627  657  687  717  747  777
                                    807  837  867  897  927  957  987 1017 1047
            0  1  1  0     2.200    358  388  418  448  478  508  538  568  598  628  658  688  718  748  778
                                    808  838  868  898  928  958  988 1018 1048
            0  0  2  0     2.200    359  389  419  449  479  509  539  569  599  629  659  689  719  749  779
                                    809  839  869  899  929  959  989 1019 1049
            3  0  0  0     3.300    360  390  420  450  480  510  540  570  600  630  660  690  720  750  780
                                    810  840  870  900  930  960  990 1020 1050
            2  1  0  0     3.300    361  391  421  451  481  511  541  571  601  631  661  691  721  751  781
                                    811  841  871  901  931  961  991 1021 1051
            2  0  1  0     3.300    362  392  422  452  482  512  542  572  602  632  662  692  722  752  782
                                    812  842  872  902  932  962  992 1022 1052
            1  2  0  0     3.300    363  393  423  453  483  513  543  573  603  633  663  693  723  753  783
                                    813  843  873  903  933  963  993 1023 1053
            1  1  1  0     3.300    364  394  424  454  484  514  544  574  604  634  664  694  724  754  784
                                    814  844  874  904  934  964  994 1024 1054
            1  0  2  0     3.300    365  395  425  455  485  515  545  575  605  635  665  695  725  755  785
                                    815  845  875  905  935  965  995 1025 1055
            0  3  0  0     3.300    366  396  426  456  486  516  546  576  606  636  666  696  726  756  786
                                    816  846  876  906  936  966  996 1026 1056
            0  2  1  0     3.300    367  397  427  457  487  517  547  577  607  637  667  697  727  757  787
                                    817  847  877  907  937  967  997 1027 1057
            0  1  2  0     3.300    368  398  428  458  488  518  548  578  608  638  668  698  728  758  788
                                    818  848  878  908  938  968  998 1028 1058
            0  0  3  0     3.300    369  399  429  459  489  519  549  579  609  639  669  699  729  759  789
                                    819  849  879  909  939  969  999 1029 1059

 H                                   32   33   34   35   36   37   38   39   40   41   42   43   44   45   46
                                     47
                                  ---------------------------------------------------------------------------
            0  0  0  0     0.690   1060 1072 1084 1096 1108 1120 1132 1144 1156 1168 1180 1192 1204 1216 1228
                                   1240
            0  0  0  0     0.920   1061 1073 1085 1097 1109 1121 1133 1145 1157 1169 1181 1193 1205 1217 1229
                                   1241
            0  0  0  0     1.580   1062 1074 1086 1098 1110 1122 1134 1146 1158 1170 1182 1194 1206 1218 1230
                                   1242
            1  0  0  0     1.250   1063 1075 1087 1099 1111 1123 1135 1147 1159 1171 1183 1195 1207 1219 1231
                                   1243
            0  1  0  0     1.250   1064 1076 1088 1100 1112 1124 1136 1148 1160 1172 1184 1196 1208 1220 1232
                                   1244
            0  0  1  0     1.250   1065 1077 1089 1101 1113 1125 1137 1149 1161 1173 1185 1197 1209 1221 1233
                                   1245
            2  0  0  0     2.500   1066 1078 1090 1102 1114 1126 1138 1150 1162 1174 1186 1198 1210 1222 1234
                                   1246
            1  1  0  0     2.500   1067 1079 1091 1103 1115 1127 1139 1151 1163 1175 1187 1199 1211 1223 1235
                                   1247
            1  0  1  0     2.500   1068 1080 1092 1104 1116 1128 1140 1152 1164 1176 1188 1200 1212 1224 1236
                                   1248
            0  2  0  0     2.500   1069 1081 1093 1105 1117 1129 1141 1153 1165 1177 1189 1201 1213 1225 1237
                                   1249
            0  1  1  0     2.500   1070 1082 1094 1106 1118 1130 1142 1154 1166 1178 1190 1202 1214 1226 1238
                                   1250
            0  0  2  0     2.500   1071 1083 1095 1107 1119 1131 1143 1155 1167 1179 1191 1203 1215 1227 1239
                                   1251

 Cl                                  48   49
                                  ---------------------------------------------------------------------------
            0  0  0  0    20.300   1252 1290
            0  0  0  0    15.250   1253 1291
            0  0  0  1     6.250   1254 1292
            0  0  0  1     4.450   1255 1293
            1  0  0  0     8.850   1256 1294
            0  1  0  0     8.850   1257 1295
            0  0  1  0     8.850   1258 1296
            1  0  0  0     5.050   1259 1297
            0  1  0  0     5.050   1260 1298
            0  0  1  0     5.050   1261 1299
            0  0  0  2     3.450   1262 1300
            0  0  0  2     2.300   1263 1301
            0  0  0  2     1.600   1264 1302
            1  0  0  1     3.350   1265 1303
            0  1  0  1     3.350   1266 1304
            0  0  1  1     3.350   1267 1305
            1  0  0  1     2.050   1268 1306
            0  1  0  1     2.050   1269 1307
            0  0  1  1     2.050   1270 1308
            1  0  0  1     1.200   1271 1309
            0  1  0  1     1.200   1272 1310
            0  0  1  1     1.200   1273 1311
            2  0  0  0     2.000   1274 1312
            1  1  0  0     2.000   1275 1313
            1  0  1  0     2.000   1276 1314
            0  2  0  0     2.000   1277 1315
            0  1  1  0     2.000   1278 1316
            0  0  2  0     2.000   1279 1317
            3  0  0  0     2.000   1280 1318
            2  1  0  0     2.000   1281 1319
            2  0  1  0     2.000   1282 1320
            1  2  0  0     2.000   1283 1321
            1  1  1  0     2.000   1284 1322
            1  0  2  0     2.000   1285 1323
            0  3  0  0     2.000   1286 1324
            0  2  1  0     2.000   1287 1325
            0  1  2  0     2.000   1288 1326
            0  0  3  0     2.000   1289 1327

 Total number of charge fitting functions (nprimf)      3929
 Total number of Cartesian basis functions (naos)       1327
 Total number of Cartesian core functions  (ncos)          0

1
 ***************************************************************************************************



                                              ***********************
                                              *  T E C H N I C A L  *
                                              ***********************
  



 =============================================================
 P A R A L L E L I Z A T I O N  and  V E C T O R I Z A T I O N
 =============================================================
  
 Nr of parallel processes:                               16
 Maximum vector length in NumInt loops:                 128



 =====================
 S C F   U P D A T E S
 =====================
  
 Max. nr. of cycles:                               300
 Convergence criterion:                              0.0000010000
   secondary criterion:                              0.0010000000

 Mix parameter (when DIIS does not apply):           0.2000000000
 Mixed ADIIS+SDIIS will be used                  
    Max number of expansion vectors:                10
    Pure ADIIS when Max([F,P]) is above              0.1000000000
    Pure SDIIS when Max([F,P]) is below              0.0010000000
 Automatic ElectronSmearing (in case of problematic SCF convergence) disabled



 =================
 P R E C I S I O N  ***  (General: NumInt, NeglectFunctionTails, ...)  ***
 =================
  

 NumInt:           Target precision:                 4.0000000000
 -------           Initial precision:                4.0000000000
                   Min. precision (optimization):    4.0000000000

 Neglect Functions:          Basis functions:        0.1000000000E-13
 ------------------          Fit functions:          0.1000000000E-13



 ===========================
 L I N E A R   S C A L I N G
 ===========================
  

 Cut-off radii density fit:                        0.1000000000E-07
 Overlap cut-off criterion AO matrix elements:     0.1000000000E-05
 Cut-offs for Coulomb potential and fitted density:0.1000000000E-07
 Cut-off criterion for Coulomb multipole terms:    0.1000000000E-07
 Progressive Convergence parameter:                 0.000000000    
1
 ***************************************************************************************************



                                            ***************************
                                            *  C O M P U T A T I O N  *
                                            ***************************
  



 ==============================
 Double group spinor symmetries  ***  (Spin-Orbit)  ***
 ==============================
  

 The double group Lowdins are spinors adapted to the irreducible representations
 of the double group. These double group Lowdins are linear combinations of
 products of the single group Lowdins and the spinfunctions. The single group
 Lowdins are  orthonormalized symmetrized fragment orbitals (SFOs).
 The complex coefficients that are used in the linear combinations are also
 known as Clebsch-Gordan coefficients.
 The spin functions (alpha,beta) span irrep e1/2


          A * e 1/2 :      A1/2

  A1/2:1 = A.alpha
  A1/2:1 = A.beta

 The table summarizes which one-electron orbital irreps (single group) couple
 with spin to which spinor irreps (double group).
 The Clebsch-Gordan series for each direct product: orbital irrep times e1/2.
                  A
            -------
  A1/2           X


 dimension (equal to the max. nr. of electrons per spinor) of the double group irreps
 ------------------------------------------------------------------------------------
  A1/2           1

 Number of elements of the density matrix on this node (used, total):     53496    881128



 ===========================================
 Numerical Integration : Fuzzy Cells (Becke)
 ===========================================
  
 Becke grid quality: NORMAL         
  
 Lebedev angular grid order:             min:  11 max:  31
 Nr. of radial points:                   min:  46 max: 175

 Total nr. of points:     356617
 Nr. of blocks:             2787
 Block length:               128
 Nr. of dummy points:        119


 Test of Precision of the Numerical Integration Grid
 ===================================================

 Integral of the Total Core Density:                   0.00000000000000


 -------------------------------------------
  COSMO surface
  Area             =         1390.528
  Volume           =         2900.911
  Number of Points =         4086
 -------------------------------------------



 ========================
 Density Fitting (zlmFit)
 ========================
  
 ZlmFit Fit Quality: NORMAL         
  
 Max L-expansion:                        min:   6 max:   8
 Nr. of radial interpolation points:     min:  39 max: 150



 ======================
 RI Hartree-Fock Scheme
 ======================
  
 Fit Set Quality     : NORMAL
 Integration Quality : NORMAL
 Threshold Quality   : NORMAL
 Response Quality    : DEFAULT
 Is Range Separated  :  T
 Type of Range Separation : 
 Long-Range: Erf potential                                                      
                                                                                
   
 Asymptotic Coulomb       :   0.650000000000000     
 
 RIHartreeFock Dependency: number of modified vectors:          54



 =====
 S C F  ***  ScaSCF  ***
 =====
  
 Initial density matrix is calculated as sum of fragments

 CYCLE    1
 SCF Error: norm([F,P])=   1408.169466284777, max([F,P])=    320.580935443720
 orbitals (Q,E):
 ---------------
 A1/2 :321...340     ( 1.00    -0.4094)  ( 1.00    -0.4094)  ( 1.00    -0.4088)  ( 1.00    -0.4088)
                     ( 1.00    -0.3943)  ( 1.00    -0.3943)  ( 1.00    -0.3943)  ( 1.00    -0.3943)
                     ( 1.00    -0.3803)  ( 1.00    -0.3803)  ( 0.00    -0.2423)  ( 0.00    -0.2423)
                     ( 0.00    -0.2419)  ( 0.00    -0.2419)  ( 0.00    -0.2340)  ( 0.00    -0.2340)
                     ( 0.00    -0.2336)  ( 0.00    -0.2336)  ( 0.00    -0.1846)  ( 0.00    -0.1846)

 CYCLE    2
   MIX coefficients:  0.8000  0.2000
 SCF Error: norm([F,P])=      3.018606544365, max([F,P])=      0.515671416736
 orbitals (Q,E):
 ---------------
 A1/2 :321...340     ( 1.00    -0.3794)  ( 1.00    -0.3794)  ( 1.00    -0.3773)  ( 1.00    -0.3773)
                     ( 1.00    -0.3760)  ( 1.00    -0.3760)  ( 1.00    -0.3628)  ( 1.00    -0.3628)
                     ( 1.00    -0.3613)  ( 1.00    -0.3613)  ( 0.00    -0.1961)  ( 0.00    -0.1961)
                     ( 0.00    -0.1920)  ( 0.00    -0.1920)  ( 0.00    -0.1888)  ( 0.00    -0.1888)
                     ( 0.00    -0.1854)  ( 0.00    -0.1854)  ( 0.00    -0.1794)  ( 0.00    -0.1794)

 CYCLE    3
  SDIIS (wt  0.000): -1.0608  2.0608
 A-DIIS (wt  1.000):  0.0000  1.0000
  DIIS coefficients:  0.0000  1.0000
 SCF Error: norm([F,P])=      2.095396744785, max([F,P])=      0.410751133564
 orbitals (Q,E):
 ---------------
 A1/2 :321...340     ( 1.00    -0.3035)  ( 1.00    -0.3035)  ( 1.00    -0.2727)  ( 1.00    -0.2727)
                     ( 1.00    -0.2659)  ( 1.00    -0.2659)  ( 1.00    -0.2564)  ( 1.00    -0.2564)
                     ( 1.00    -0.2500)  ( 1.00    -0.2500)  ( 0.00    -0.2228)  ( 0.00    -0.2228)
                     ( 0.00    -0.2069)  ( 0.00    -0.2069)  ( 0.00    -0.1960)  ( 0.00    -0.1960)
                     ( 0.00    -0.1820)  ( 0.00    -0.1820)  ( 0.00    -0.0972)  ( 0.00    -0.0972)

 CYCLE    4
  SDIIS (wt  0.000): -0.2920  1.0303  0.2618
 A-DIIS (wt  1.000):  0.0000  0.8673  0.1327
  DIIS coefficients:  0.0000  0.8673  0.1327
 SCF Error: norm([F,P])=      3.249352949203, max([F,P])=      0.427180981764
 orbitals (Q,E):
 ---------------
 A1/2 :321...340     ( 1.00    -0.2924)  ( 1.00    -0.2924)  ( 1.00    -0.2799)  ( 1.00    -0.2799)
                     ( 1.00    -0.2754)  ( 1.00    -0.2754)  ( 1.00    -0.2640)  ( 1.00    -0.2640)
                     ( 1.00    -0.2592)  ( 1.00    -0.2592)  ( 0.00    -0.0581)  ( 0.00    -0.0581)
                     ( 0.00    -0.0449)  ( 0.00    -0.0449)  ( 0.00    -0.0279)  ( 0.00    -0.0279)
                     ( 0.00    -0.0203)  ( 0.00    -0.0203)  ( 0.00    -0.0051)  ( 0.00    -0.0051)

 CYCLE    5
  SDIIS (wt  0.546):  0.1916 -0.1196 -0.0185  0.9464
 A-DIIS (wt  0.454):  0.0000  0.1316  0.0000  0.8684
  DIIS coefficients:  0.1045 -0.0055 -0.0101  0.9110
 SCF Error: norm([F,P])=      0.525449907981, max([F,P])=      0.045986417218
 orbitals (Q,E):
 ---------------
 A1/2 :321...340     ( 1.00    -0.3492)  ( 1.00    -0.3492)  ( 1.00    -0.3204)  ( 1.00    -0.3204)
                     ( 1.00    -0.3176)  ( 1.00    -0.3176)  ( 1.00    -0.3081)  ( 1.00    -0.3081)
                     ( 1.00    -0.3049)  ( 1.00    -0.3049)  ( 0.00    -0.0626)  ( 0.00    -0.0626)
                     ( 0.00    -0.0550)  ( 0.00    -0.0550)  ( 0.00    -0.0467)  ( 0.00    -0.0467)
                     ( 0.00    -0.0442)  ( 0.00    -0.0442)  ( 0.00    -0.0387)  ( 0.00    -0.0387)

 CYCLE    6
  SDIIS (wt  0.611): -0.0774  0.1137  0.0057  0.3339  0.6241
 A-DIIS (wt  0.389):  0.0000  0.0000  0.0000  0.3715  0.6285
  DIIS coefficients: -0.0473  0.0695  0.0035  0.3485  0.6258
 SCF Error: norm([F,P])=      0.374146221704, max([F,P])=      0.039498272551
 orbitals (Q,E):
 ---------------
 A1/2 :321...340     ( 1.00    -0.3410)  ( 1.00    -0.3410)  ( 1.00    -0.3137)  ( 1.00    -0.3137)
                     ( 1.00    -0.3103)  ( 1.00    -0.3103)  ( 1.00    -0.2996)  ( 1.00    -0.2996)
                     ( 1.00    -0.2958)  ( 1.00    -0.2958)  ( 0.00    -0.0709)  ( 0.00    -0.0709)
                     ( 0.00    -0.0622)  ( 0.00    -0.0622)  ( 0.00    -0.0435)  ( 0.00    -0.0435)
                     ( 0.00    -0.0383)  ( 0.00    -0.0383)  ( 0.00    -0.0370)  ( 0.00    -0.0370)

 CYCLE    7
  SDIIS (wt  0.918): -0.0118  0.0187 -0.0037  0.1468  0.2878  0.5622
 A-DIIS (wt  0.082):  0.0000  0.0000  0.0000  0.0000  0.0019  0.9981
  DIIS coefficients: -0.0108  0.0172 -0.0034  0.1348  0.2643  0.5981
 SCF Error: norm([F,P])=      0.088784840750, max([F,P])=      0.009137312488
 orbitals (Q,E):
 ---------------
 A1/2 :321...340     ( 1.00    -0.3416)  ( 1.00    -0.3416)  ( 1.00    -0.3106)  ( 1.00    -0.3106)
                     ( 1.00    -0.3072)  ( 1.00    -0.3072)  ( 1.00    -0.2970)  ( 1.00    -0.2970)
                     ( 1.00    -0.2932)  ( 1.00    -0.2932)  ( 0.00    -0.0649)  ( 0.00    -0.0649)
                     ( 0.00    -0.0563)  ( 0.00    -0.0563)  ( 0.00    -0.0388)  ( 0.00    -0.0388)
                     ( 0.00    -0.0353)  ( 0.00    -0.0353)  ( 0.00    -0.0324)  ( 0.00    -0.0324)

 CYCLE    8
  SDIIS (wt  0.989): -0.0008  0.0008 -0.0008  0.0101  0.0282  0.2365  0.7261
 A-DIIS (wt  0.011):  0.0000  0.0000  0.0000  0.0000  0.0000  0.0070  0.9930
  DIIS coefficients: -0.0008  0.0008 -0.0008  0.0100  0.0278  0.2339  0.7291
 SCF Error: norm([F,P])=      0.020869476887, max([F,P])=      0.002126104462
 orbitals (Q,E):
 ---------------
 A1/2 :321...340     ( 1.00    -0.3409)  ( 1.00    -0.3409)  ( 1.00    -0.3107)  ( 1.00    -0.3107)
                     ( 1.00    -0.3073)  ( 1.00    -0.3073)  ( 1.00    -0.2970)  ( 1.00    -0.2970)
                     ( 1.00    -0.2932)  ( 1.00    -0.2932)  ( 0.00    -0.0654)  ( 0.00    -0.0654)
                     ( 0.00    -0.0567)  ( 0.00    -0.0567)  ( 0.00    -0.0390)  ( 0.00    -0.0390)
                     ( 0.00    -0.0349)  ( 0.00    -0.0349)  ( 0.00    -0.0328)  ( 0.00    -0.0328)

 CYCLE    9
  SDIIS (wt  1.000): -0.0003 -0.0002  0.0001 -0.0121 -0.0192  0.0403  0.3536  0.6378
  DIIS coefficients: -0.0003 -0.0002  0.0001 -0.0121 -0.0192  0.0403  0.3536  0.6378
 SCF Error: norm([F,P])=      0.005427151899, max([F,P])=      0.000518445659
 orbitals (Q,E):
 ---------------
 A1/2 :321...340     ( 1.00    -0.3414)  ( 1.00    -0.3414)  ( 1.00    -0.3110)  ( 1.00    -0.3110)
                     ( 1.00    -0.3076)  ( 1.00    -0.3076)  ( 1.00    -0.2973)  ( 1.00    -0.2973)
                     ( 1.00    -0.2936)  ( 1.00    -0.2936)  ( 0.00    -0.0656)  ( 0.00    -0.0656)
                     ( 0.00    -0.0569)  ( 0.00    -0.0569)  ( 0.00    -0.0392)  ( 0.00    -0.0392)
                     ( 0.00    -0.0352)  ( 0.00    -0.0352)  ( 0.00    -0.0330)  ( 0.00    -0.0330)

 CYCLE   10
  SDIIS (wt  1.000):  0.0006 -0.0008  0.0001 -0.0052 -0.0108 -0.0217 -0.0014  0.1479  0.8915
  DIIS coefficients:  0.0006 -0.0008  0.0001 -0.0052 -0.0108 -0.0217 -0.0014  0.1479  0.8915
 SCF Error: norm([F,P])=      0.001357344132, max([F,P])=      0.000144721460
 orbitals (Q,E):
 ---------------
 A1/2 :321...340     ( 1.00    -0.3414)  ( 1.00    -0.3414)  ( 1.00    -0.3109)  ( 1.00    -0.3109)
                     ( 1.00    -0.3075)  ( 1.00    -0.3075)  ( 1.00    -0.2974)  ( 1.00    -0.2974)
                     ( 1.00    -0.2936)  ( 1.00    -0.2936)  ( 0.00    -0.0658)  ( 0.00    -0.0658)
                     ( 0.00    -0.0572)  ( 0.00    -0.0572)  ( 0.00    -0.0394)  ( 0.00    -0.0394)
                     ( 0.00    -0.0352)  ( 0.00    -0.0352)  ( 0.00    -0.0332)  ( 0.00    -0.0332)

 CYCLE   11
  SDIIS (wt  1.000):  0.0003 -0.0003 -0.0001 -0.0003 -0.0019 -0.0143 -0.0444 -0.0291  0.3207  0.7694
  DIIS coefficients:  0.0003 -0.0003 -0.0001 -0.0003 -0.0019 -0.0143 -0.0444 -0.0291  0.3207  0.7694
 SCF Error: norm([F,P])=      0.000874896927, max([F,P])=      0.000111718014
 orbitals (Q,E):
 ---------------
 A1/2 :321...340     ( 1.00    -0.3414)  ( 1.00    -0.3414)  ( 1.00    -0.3109)  ( 1.00    -0.3109)
                     ( 1.00    -0.3075)  ( 1.00    -0.3075)  ( 1.00    -0.2973)  ( 1.00    -0.2973)
                     ( 1.00    -0.2936)  ( 1.00    -0.2936)  ( 0.00    -0.0657)  ( 0.00    -0.0657)
                     ( 0.00    -0.0570)  ( 0.00    -0.0570)  ( 0.00    -0.0393)  ( 0.00    -0.0393)
                     ( 0.00    -0.0351)  ( 0.00    -0.0351)  ( 0.00    -0.0331)  ( 0.00    -0.0331)

 CYCLE   12
  SDIIS (wt  1.000):  0.0000 -0.0001  0.0006  0.0009 -0.0020 -0.0146 -0.0326 -0.0206  0.2490  0.8193
  DIIS coefficients:  0.0000 -0.0001  0.0006  0.0009 -0.0020 -0.0146 -0.0326 -0.0206  0.2490  0.8193
 SCF Error: norm([F,P])=      0.000254373240, max([F,P])=      0.000025065849
 orbitals (Q,E):
 ---------------
 A1/2 :321...340     ( 1.00    -0.3414)  ( 1.00    -0.3414)  ( 1.00    -0.3109)  ( 1.00    -0.3109)
                     ( 1.00    -0.3075)  ( 1.00    -0.3075)  ( 1.00    -0.2973)  ( 1.00    -0.2973)
                     ( 1.00    -0.2936)  ( 1.00    -0.2936)  ( 0.00    -0.0657)  ( 0.00    -0.0657)
                     ( 0.00    -0.0570)  ( 0.00    -0.0570)  ( 0.00    -0.0393)  ( 0.00    -0.0393)
                     ( 0.00    -0.0352)  ( 0.00    -0.0352)  ( 0.00    -0.0331)  ( 0.00    -0.0331)

 CYCLE   13
  SDIIS (wt  1.000):  0.0000  0.0002  0.0005  0.0014 -0.0003 -0.0128 -0.0639 -0.0314  0.3962  0.7101
  DIIS coefficients:  0.0000  0.0002  0.0005  0.0014 -0.0003 -0.0128 -0.0639 -0.0314  0.3962  0.7101
 SCF Error: norm([F,P])=      0.000167694443, max([F,P])=      0.000017004813
 orbitals (Q,E):
 ---------------
 A1/2 :321...340     ( 1.00    -0.3414)  ( 1.00    -0.3414)  ( 1.00    -0.3109)  ( 1.00    -0.3109)
                     ( 1.00    -0.3075)  ( 1.00    -0.3075)  ( 1.00    -0.2973)  ( 1.00    -0.2973)
                     ( 1.00    -0.2936)  ( 1.00    -0.2936)  ( 0.00    -0.0657)  ( 0.00    -0.0657)
                     ( 0.00    -0.0570)  ( 0.00    -0.0570)  ( 0.00    -0.0393)  ( 0.00    -0.0393)
                     ( 0.00    -0.0352)  ( 0.00    -0.0352)  ( 0.00    -0.0331)  ( 0.00    -0.0331)

 CYCLE   14
  SDIIS (wt  1.000):  0.0001  0.0003  0.0014  0.0021 -0.0014 -0.0251 -0.0461  0.0060  0.2574  0.8051
  DIIS coefficients:  0.0001  0.0003  0.0014  0.0021 -0.0014 -0.0251 -0.0461  0.0060  0.2574  0.8051
 SCF Error: norm([F,P])=      0.000068004243, max([F,P])=      0.000005866983
 orbitals (Q,E):
 ---------------
 A1/2 :321...340     ( 1.00    -0.3414)  ( 1.00    -0.3414)  ( 1.00    -0.3109)  ( 1.00    -0.3109)
                     ( 1.00    -0.3075)  ( 1.00    -0.3075)  ( 1.00    -0.2974)  ( 1.00    -0.2974)
                     ( 1.00    -0.2936)  ( 1.00    -0.2936)  ( 0.00    -0.0657)  ( 0.00    -0.0657)
                     ( 0.00    -0.0570)  ( 0.00    -0.0570)  ( 0.00    -0.0393)  ( 0.00    -0.0393)
                     ( 0.00    -0.0352)  ( 0.00    -0.0352)  ( 0.00    -0.0331)  ( 0.00    -0.0331)

 CYCLE   15
  SDIIS (wt  1.000): -0.0000  0.0007  0.0025  0.0037 -0.0047 -0.0387 -0.0772  0.0212  0.3857  0.7070
  DIIS coefficients: -0.0000  0.0007  0.0025  0.0037 -0.0047 -0.0387 -0.0772  0.0212  0.3857  0.7070
 SCF Error: norm([F,P])=      0.000041040653, max([F,P])=      0.000003340108
 orbitals (Q,E):
 ---------------
 A1/2 :321...340     ( 1.00    -0.3414)  ( 1.00    -0.3414)  ( 1.00    -0.3109)  ( 1.00    -0.3109)
                     ( 1.00    -0.3075)  ( 1.00    -0.3075)  ( 1.00    -0.2974)  ( 1.00    -0.2974)
                     ( 1.00    -0.2936)  ( 1.00    -0.2936)  ( 0.00    -0.0657)  ( 0.00    -0.0657)
                     ( 0.00    -0.0570)  ( 0.00    -0.0570)  ( 0.00    -0.0393)  ( 0.00    -0.0393)
                     ( 0.00    -0.0352)  ( 0.00    -0.0352)  ( 0.00    -0.0331)  ( 0.00    -0.0331)

 CYCLE   16
  SDIIS (wt  1.000): -0.0001 -0.0000  0.0005  0.0053 -0.0006 -0.0270 -0.0414 -0.0420  0.1879  0.9174
  DIIS coefficients: -0.0001 -0.0000  0.0005  0.0053 -0.0006 -0.0270 -0.0414 -0.0420  0.1879  0.9174
 SCF Error: norm([F,P])=      0.000014833681, max([F,P])=      0.000001480434
 orbitals (Q,E):
 ---------------
 A1/2 :321...340     ( 1.00    -0.3414)  ( 1.00    -0.3414)  ( 1.00    -0.3109)  ( 1.00    -0.3109)
                     ( 1.00    -0.3075)  ( 1.00    -0.3075)  ( 1.00    -0.2973)  ( 1.00    -0.2973)
                     ( 1.00    -0.2936)  ( 1.00    -0.2936)  ( 0.00    -0.0657)  ( 0.00    -0.0657)
                     ( 0.00    -0.0570)  ( 0.00    -0.0570)  ( 0.00    -0.0393)  ( 0.00    -0.0393)
                     ( 0.00    -0.0352)  ( 0.00    -0.0352)  ( 0.00    -0.0331)  ( 0.00    -0.0331)

 CYCLE   17
  SDIIS (wt  1.000):  0.0001  0.0005  0.0011  0.0005 -0.0045 -0.0143 -0.0463 -0.0405  0.1876  0.9159
  DIIS coefficients:  0.0001  0.0005  0.0011  0.0005 -0.0045 -0.0143 -0.0463 -0.0405  0.1876  0.9159
 SCF Error: norm([F,P])=      0.000006915657, max([F,P])=      0.000000860196
 orbitals (Q,E):
 ---------------
 A1/2 :321...340     ( 1.00    -0.3414)  ( 1.00    -0.3414)  ( 1.00    -0.3109)  ( 1.00    -0.3109)
                     ( 1.00    -0.3075)  ( 1.00    -0.3075)  ( 1.00    -0.2974)  ( 1.00    -0.2974)
                     ( 1.00    -0.2936)  ( 1.00    -0.2936)  ( 0.00    -0.0657)  ( 0.00    -0.0657)
                     ( 0.00    -0.0570)  ( 0.00    -0.0570)  ( 0.00    -0.0393)  ( 0.00    -0.0393)
                     ( 0.00    -0.0352)  ( 0.00    -0.0352)  ( 0.00    -0.0331)  ( 0.00    -0.0331)

 SCF CONVERGED
 cosmo_calcen: 0.5 (esolb+esolc) (Hartrees) =   -0.058481

 Solvation energy (screening term,uncorrected) =    -36.697171 kcal/mol

 Solvation energy (dispersion and cavitation terms) =      2.600179 kcal/mol
 Solvation Energy Contributions (Hartrees)
          esola   esolb+esolc
     0.05848066   -0.11696132
 esol last cycle   -0.05848066

 CYCLE   18
1
 ***************************************************************************************************



                                                *******************
                                                *  R E S U L T S  *
                                                *******************
  
  
 Hartree-Fock exchange energy:   -160.176850797033     
 *** Using EXACT density in Focky


 *** Use of untested dispersion parameters detected in GrimmeDispersion ***


  SDIIS (wt  1.000): -0.0001 -0.0005  0.0016  0.0063  0.0015 -0.0289 -0.0676 -0.0475  0.4064  0.7289
  DIIS coefficients: -0.0001 -0.0005  0.0016  0.0063  0.0015 -0.0289 -0.0676 -0.0475  0.4064  0.7289
 SCF Error: norm([F,P])=      0.000004025554, max([F,P])=      0.000000511127

 Scaled ZORA Orbital Energies, per Irrep and Spin:
 =================================================
                        Occup              E (au)              E (eV)       Diff (eV) with prev. cycle
                        -----      --------------------        ------       --------------------------
 A1/2
             321        1.000     -0.34144311148601E+00        -9.291               4.27E-06
             322        1.000     -0.34144311148460E+00        -9.291               4.27E-06
             323        1.000     -0.31094265436321E+00        -8.461               2.89E-06
             324        1.000     -0.31094265436321E+00        -8.461               2.89E-06
             325        1.000     -0.30753117847642E+00        -8.368               1.74E-06
             326        1.000     -0.30753117847026E+00        -8.368               1.74E-06
             327        1.000     -0.29735002372717E+00        -8.091               2.02E-06
             328        1.000     -0.29735002372518E+00        -8.091               2.02E-06
             329        1.000     -0.29355732820564E+00        -7.988               9.61E-07
             330        1.000     -0.29355732820402E+00        -7.988               9.61E-07
             331        0.000     -0.65699717904994E-01        -1.788
             332        0.000     -0.65699717903972E-01        -1.788
             333        0.000     -0.57033020525005E-01        -1.552
             334        0.000     -0.57033020519457E-01        -1.552
             335        0.000     -0.39297624328237E-01        -1.069
             336        0.000     -0.39297624328026E-01        -1.069
             337        0.000     -0.35152024756391E-01        -0.957
             338        0.000     -0.35152024755883E-01        -0.957
             339        0.000     -0.33105135038368E-01        -0.901
             340        0.000     -0.33105135038312E-01        -0.901
  
 HOMO :      330 A1/2             -0.29355732820402E+00
 LUMO :      331 A1/2             -0.65699717904994E-01
  
 cosmo_calcen: 0.5 (esolb+esolc) (Hartrees) =   -0.058481

 Solvation energy (screening term,uncorrected) =    -36.697173 kcal/mol

 Solvation energy (dispersion and cavitation terms) =      2.600179 kcal/mol
 Solvation Energy Contributions (Hartrees)
          esola   esolb+esolc
     0.05848066   -0.11696132
 esol last cycle   -0.05848066


 All Electron Calculation, thus no Orbital Energies of the Core Orbitals are calculated


 Fit test: (difference of exact and fit density, squared integrated, result summed over spins)
         Sum-of-Fragments:                             0.00000785887362
         Orthogonalized Fragments:                     0.00348532216726
         SCF:                                          0.00413562681957



 ==========================
 Electron Density at Nuclei
 ==========================
  
 The electron density is calculated at points on a small sphere around the center of a nucleus.
 The printed electron density is the average electron density on these points.
 The radius of the sphere is the printed approximate finite nuclear radius.
 Note: ZORA-4 density is used, which includes small component density

         Atom        Nuclear Radius (Angstrom)             Electron Density (a.u.)
         ----        -------------------------             -----------------------
     1)   U                 0.0000742428                          4173013.02059
     2)   O                 0.0000345546                              313.77926
     3)   O                 0.0000345546                              313.77936
     4)   N                 0.0000333706                              205.66251
     5)   C                 0.0000320678                              126.81777
     6)   H                 0.0000181514                                0.49310
     7)   C                 0.0000320678                              126.75968
     8)   H                 0.0000181514                                0.49198
     9)   C                 0.0000320678                              126.81039
    10)   H                 0.0000181514                                0.49146
    11)   C                 0.0000320678                              126.74929
    12)   C                 0.0000320678                              126.76521
    13)   H                 0.0000181514                                0.49243
    14)   C                 0.0000320678                              126.76556
    15)   H                 0.0000181514                                0.49241
    16)   C                 0.0000320678                              126.74911
    17)   C                 0.0000320678                              126.81047
    18)   H                 0.0000181514                                0.49145
    19)   C                 0.0000320678                              126.75950
    20)   H                 0.0000181514                                0.49199
    21)   C                 0.0000320678                              126.81760
    22)   H                 0.0000181514                                0.49311
    23)   N                 0.0000333706                              205.66289
    24)   C                 0.0000320678                              126.74402
    25)   C                 0.0000320678                              126.74390
    26)   Cl                0.0000426624                             3311.16413
    27)   Cl                0.0000426624                             3311.16399
    28)   N                 0.0000333706                              205.72024
    29)   C                 0.0000320678                              126.80549
    30)   H                 0.0000181514                                0.49782
    31)   C                 0.0000320678                              126.76018
    32)   H                 0.0000181514                                0.49231
    33)   C                 0.0000320678                              126.80560
    34)   H                 0.0000181514                                0.49183
    35)   C                 0.0000320678                              126.74904
    36)   C                 0.0000320678                              126.76349
    37)   H                 0.0000181514                                0.49270
    38)   C                 0.0000320678                              126.76294
    39)   H                 0.0000181514                                0.49274
    40)   C                 0.0000320678                              126.74867
    41)   C                 0.0000320678                              126.80516
    42)   H                 0.0000181514                                0.49187
    43)   C                 0.0000320678                              126.76041
    44)   H                 0.0000181514                                0.49232
    45)   C                 0.0000320678                              126.80570
    46)   H                 0.0000181514                                0.49783
    47)   N                 0.0000333706                              205.72009
    48)   C                 0.0000320678                              126.74672
    49)   C                 0.0000320678                              126.74643



 =======================================
 M U L L I K E N   P O P U L A T I O N S
 =======================================
  
 The survey below gives for each atom:
[...]
   i, eigenvalue(i) in dvdson    13    0.1299334614E+00
   i, eigenvalue(i) in dvdson    14    0.1304584058E+00
   i, eigenvalue(i) in dvdson    15    0.1463057217E+00
   i, eigenvalue(i) in dvdson    16    0.1509372692E+00
 collapse basis         104          32
Eigenvalues of small (approximate) problem
   i, eigenvalue(i) in dvdson     1    0.8774873390E-01
   i, eigenvalue(i) in dvdson     2    0.9267265734E-01
   i, eigenvalue(i) in dvdson     3    0.9339437683E-01
   i, eigenvalue(i) in dvdson     4    0.9418095795E-01
   i, eigenvalue(i) in dvdson     5    0.9687811110E-01
   i, eigenvalue(i) in dvdson     6    0.1028459227E+00
   i, eigenvalue(i) in dvdson     7    0.1043639556E+00
   i, eigenvalue(i) in dvdson     8    0.1058684710E+00
   i, eigenvalue(i) in dvdson     9    0.1069908385E+00
   i, eigenvalue(i) in dvdson    10    0.1098837378E+00
   i, eigenvalue(i) in dvdson    11    0.1106349989E+00
   i, eigenvalue(i) in dvdson    12    0.1131630892E+00
   i, eigenvalue(i) in dvdson    13    0.1177362624E+00
   i, eigenvalue(i) in dvdson    14    0.1203217601E+00
   i, eigenvalue(i) in dvdson    15    0.1290180766E+00
   i, eigenvalue(i) in dvdson    16    0.1297427672E+00
Eigenvalues of small (approximate) problem
   i, eigenvalue(i) in dvdson     1    0.8596402418E-01
   i, eigenvalue(i) in dvdson     2    0.8761366677E-01
   i, eigenvalue(i) in dvdson     3    0.8849461375E-01
   i, eigenvalue(i) in dvdson     4    0.8924046166E-01
   i, eigenvalue(i) in dvdson     5    0.9168592389E-01
   i, eigenvalue(i) in dvdson     6    0.9384340638E-01
   i, eigenvalue(i) in dvdson     7    0.9918676990E-01
   i, eigenvalue(i) in dvdson     8    0.1012024493E+00
   i, eigenvalue(i) in dvdson     9    0.1031723017E+00
   i, eigenvalue(i) in dvdson    10    0.1037083845E+00
   i, eigenvalue(i) in dvdson    11    0.1039779797E+00
   i, eigenvalue(i) in dvdson    12    0.1044033013E+00
   i, eigenvalue(i) in dvdson    13    0.1047295973E+00
   i, eigenvalue(i) in dvdson    14    0.1055021712E+00
   i, eigenvalue(i) in dvdson    15    0.1280087645E+00
   i, eigenvalue(i) in dvdson    16    0.1281506248E+00
Eigenvalues of small (approximate) problem
   i, eigenvalue(i) in dvdson     1    0.8586837105E-01
   i, eigenvalue(i) in dvdson     2    0.8736064037E-01
   i, eigenvalue(i) in dvdson     3    0.8761118027E-01
   i, eigenvalue(i) in dvdson     4    0.8841829271E-01
   i, eigenvalue(i) in dvdson     5    0.9159925802E-01
   i, eigenvalue(i) in dvdson     6    0.9186792244E-01
   i, eigenvalue(i) in dvdson     7    0.9834810403E-01
   i, eigenvalue(i) in dvdson     8    0.1007600220E+00
   i, eigenvalue(i) in dvdson     9    0.1025796501E+00
   i, eigenvalue(i) in dvdson    10    0.1031062779E+00
   i, eigenvalue(i) in dvdson    11    0.1034353494E+00
   i, eigenvalue(i) in dvdson    12    0.1039635582E+00
   i, eigenvalue(i) in dvdson    13    0.1042754724E+00
   i, eigenvalue(i) in dvdson    14    0.1052905600E+00
   i, eigenvalue(i) in dvdson    15    0.1279911548E+00
   i, eigenvalue(i) in dvdson    16    0.1281407876E+00
 collapse basis         104          32
Eigenvalues of small (approximate) problem
   i, eigenvalue(i) in dvdson     1    0.8567487661E-01
   i, eigenvalue(i) in dvdson     2    0.8714849721E-01
   i, eigenvalue(i) in dvdson     3    0.8751448106E-01
   i, eigenvalue(i) in dvdson     4    0.8809534511E-01
   i, eigenvalue(i) in dvdson     5    0.9139480701E-01
   i, eigenvalue(i) in dvdson     6    0.9182822156E-01
   i, eigenvalue(i) in dvdson     7    0.9761505626E-01
   i, eigenvalue(i) in dvdson     8    0.1004614107E+00
   i, eigenvalue(i) in dvdson     9    0.1025424166E+00
   i, eigenvalue(i) in dvdson    10    0.1027115777E+00
   i, eigenvalue(i) in dvdson    11    0.1032689416E+00
   i, eigenvalue(i) in dvdson    12    0.1035672887E+00
   i, eigenvalue(i) in dvdson    13    0.1038932600E+00
   i, eigenvalue(i) in dvdson    14    0.1048174419E+00
   i, eigenvalue(i) in dvdson    15    0.1279355470E+00
   i, eigenvalue(i) in dvdson    16    0.1281108446E+00
Eigenvalues of small (approximate) problem
   i, eigenvalue(i) in dvdson     1    0.8547026144E-01
   i, eigenvalue(i) in dvdson     2    0.8644142985E-01
   i, eigenvalue(i) in dvdson     3    0.8725318637E-01
   i, eigenvalue(i) in dvdson     4    0.8754720815E-01
   i, eigenvalue(i) in dvdson     5    0.9113656641E-01
   i, eigenvalue(i) in dvdson     6    0.9158098329E-01
   i, eigenvalue(i) in dvdson     7    0.9614137721E-01
   i, eigenvalue(i) in dvdson     8    0.9925151222E-01
   i, eigenvalue(i) in dvdson     9    0.1023642835E+00
   i, eigenvalue(i) in dvdson    10    0.1023796565E+00
   i, eigenvalue(i) in dvdson    11    0.1025213508E+00
   i, eigenvalue(i) in dvdson    12    0.1032759163E+00
   i, eigenvalue(i) in dvdson    13    0.1033971879E+00
   i, eigenvalue(i) in dvdson    14    0.1037135092E+00
   i, eigenvalue(i) in dvdson    15    0.1277329375E+00
   i, eigenvalue(i) in dvdson    16    0.1277568604E+00
Eigenvalues of small (approximate) problem
   i, eigenvalue(i) in dvdson     1    0.8543363934E-01
   i, eigenvalue(i) in dvdson     2    0.8640588174E-01
   i, eigenvalue(i) in dvdson     3    0.8724723393E-01
   i, eigenvalue(i) in dvdson     4    0.8751413921E-01
   i, eigenvalue(i) in dvdson     5    0.9112984658E-01
   i, eigenvalue(i) in dvdson     6    0.9156789256E-01
   i, eigenvalue(i) in dvdson     7    0.9562262551E-01
   i, eigenvalue(i) in dvdson     8    0.9914044422E-01
   i, eigenvalue(i) in dvdson     9    0.1023322730E+00
   i, eigenvalue(i) in dvdson    10    0.1023568561E+00
   i, eigenvalue(i) in dvdson    11    0.1023746771E+00
   i, eigenvalue(i) in dvdson    12    0.1032533417E+00
   i, eigenvalue(i) in dvdson    13    0.1032687128E+00
   i, eigenvalue(i) in dvdson    14    0.1033224426E+00
   i, eigenvalue(i) in dvdson    15    0.1277312277E+00
   i, eigenvalue(i) in dvdson    16    0.1277551243E+00
 collapse basis         104          32
Eigenvalues of small (approximate) problem
   i, eigenvalue(i) in dvdson     1    0.8540804169E-01
   i, eigenvalue(i) in dvdson     2    0.8634399938E-01
   i, eigenvalue(i) in dvdson     3    0.8723620683E-01
   i, eigenvalue(i) in dvdson     4    0.8750612388E-01
   i, eigenvalue(i) in dvdson     5    0.9107923654E-01
   i, eigenvalue(i) in dvdson     6    0.9154557751E-01
   i, eigenvalue(i) in dvdson     7    0.9561097136E-01
   i, eigenvalue(i) in dvdson     8    0.9910175071E-01
   i, eigenvalue(i) in dvdson     9    0.1023287313E+00
   i, eigenvalue(i) in dvdson    10    0.1023399144E+00
   i, eigenvalue(i) in dvdson    11    0.1023694639E+00
   i, eigenvalue(i) in dvdson    12    0.1032478082E+00
   i, eigenvalue(i) in dvdson    13    0.1032658164E+00
   i, eigenvalue(i) in dvdson    14    0.1033170762E+00
   i, eigenvalue(i) in dvdson    15    0.1277258861E+00
   i, eigenvalue(i) in dvdson    16    0.1277407837E+00
Eigenvalues of small (approximate) problem
   i, eigenvalue(i) in dvdson     1    0.8539296441E-01
   i, eigenvalue(i) in dvdson     2    0.8627654397E-01
   i, eigenvalue(i) in dvdson     3    0.8718744379E-01
   i, eigenvalue(i) in dvdson     4    0.8742264754E-01
   i, eigenvalue(i) in dvdson     5    0.9103619968E-01
   i, eigenvalue(i) in dvdson     6    0.9147781179E-01
   i, eigenvalue(i) in dvdson     7    0.9555723812E-01
   i, eigenvalue(i) in dvdson     8    0.9885018112E-01
   i, eigenvalue(i) in dvdson     9    0.1023050486E+00
   i, eigenvalue(i) in dvdson    10    0.1023089461E+00
   i, eigenvalue(i) in dvdson    11    0.1023222322E+00
   i, eigenvalue(i) in dvdson    12    0.1032246454E+00
   i, eigenvalue(i) in dvdson    13    0.1032303445E+00
   i, eigenvalue(i) in dvdson    14    0.1032574893E+00
   i, eigenvalue(i) in dvdson    15    0.1275331081E+00
   i, eigenvalue(i) in dvdson    16    0.1276560956E+00
Eigenvalues of small (approximate) problem
   i, eigenvalue(i) in dvdson     1    0.8539205463E-01
   i, eigenvalue(i) in dvdson     2    0.8625490492E-01
   i, eigenvalue(i) in dvdson     3    0.8718491016E-01
   i, eigenvalue(i) in dvdson     4    0.8737274274E-01
   i, eigenvalue(i) in dvdson     5    0.9103231490E-01
   i, eigenvalue(i) in dvdson     6    0.9147609797E-01
   i, eigenvalue(i) in dvdson     7    0.9555450205E-01
   i, eigenvalue(i) in dvdson     8    0.9870147004E-01
   i, eigenvalue(i) in dvdson     9    0.1023039349E+00
   i, eigenvalue(i) in dvdson    10    0.1023079167E+00
   i, eigenvalue(i) in dvdson    11    0.1023207088E+00
   i, eigenvalue(i) in dvdson    12    0.1032235678E+00
   i, eigenvalue(i) in dvdson    13    0.1032287630E+00
   i, eigenvalue(i) in dvdson    14    0.1032566785E+00
   i, eigenvalue(i) in dvdson    15    0.1232339794E+00
   i, eigenvalue(i) in dvdson    16    0.1276547290E+00
 collapse basis         104          32
Eigenvalues of small (approximate) problem
   i, eigenvalue(i) in dvdson     1    0.8539062411E-01
   i, eigenvalue(i) in dvdson     2    0.8625458404E-01
   i, eigenvalue(i) in dvdson     3    0.8718213855E-01
   i, eigenvalue(i) in dvdson     4    0.8737165636E-01
   i, eigenvalue(i) in dvdson     5    0.9102954377E-01
   i, eigenvalue(i) in dvdson     6    0.9147301704E-01
   i, eigenvalue(i) in dvdson     7    0.9555329608E-01
   i, eigenvalue(i) in dvdson     8    0.9869848801E-01
   i, eigenvalue(i) in dvdson     9    0.1023036344E+00
   i, eigenvalue(i) in dvdson    10    0.1023067344E+00
   i, eigenvalue(i) in dvdson    11    0.1023193593E+00
   i, eigenvalue(i) in dvdson    12    0.1032228516E+00
   i, eigenvalue(i) in dvdson    13    0.1032276997E+00
   i, eigenvalue(i) in dvdson    14    0.1032550422E+00
   i, eigenvalue(i) in dvdson    15    0.1211952869E+00
   i, eigenvalue(i) in dvdson    16    0.1276538547E+00
Eigenvalues of small (approximate) problem
   i, eigenvalue(i) in dvdson     1    0.8538964570E-01
   i, eigenvalue(i) in dvdson     2    0.8625160849E-01
   i, eigenvalue(i) in dvdson     3    0.8717063735E-01
   i, eigenvalue(i) in dvdson     4    0.8736353172E-01
   i, eigenvalue(i) in dvdson     5    0.9102312664E-01
   i, eigenvalue(i) in dvdson     6    0.9145168527E-01
   i, eigenvalue(i) in dvdson     7    0.9554202784E-01
   i, eigenvalue(i) in dvdson     8    0.9867905188E-01
   i, eigenvalue(i) in dvdson     9    0.1022974396E+00
   i, eigenvalue(i) in dvdson    10    0.1023001868E+00
   i, eigenvalue(i) in dvdson    11    0.1023052896E+00
   i, eigenvalue(i) in dvdson    12    0.1032152909E+00
   i, eigenvalue(i) in dvdson    13    0.1032185730E+00
   i, eigenvalue(i) in dvdson    14    0.1032360081E+00
   i, eigenvalue(i) in dvdson    15    0.1178455836E+00
   i, eigenvalue(i) in dvdson    16    0.1276198054E+00
Eigenvalues of small (approximate) problem
   i, eigenvalue(i) in dvdson     1    0.8538963348E-01
   i, eigenvalue(i) in dvdson     2    0.8625155715E-01
   i, eigenvalue(i) in dvdson     3    0.8716936562E-01
   i, eigenvalue(i) in dvdson     4    0.8736297800E-01
   i, eigenvalue(i) in dvdson     5    0.9102239825E-01
   i, eigenvalue(i) in dvdson     6    0.9143713607E-01
   i, eigenvalue(i) in dvdson     7    0.9554177766E-01
   i, eigenvalue(i) in dvdson     8    0.9867871653E-01
   i, eigenvalue(i) in dvdson     9    0.1022968963E+00
   i, eigenvalue(i) in dvdson    10    0.1022984383E+00
   i, eigenvalue(i) in dvdson    11    0.1023030208E+00
   i, eigenvalue(i) in dvdson    12    0.1032146029E+00
   i, eigenvalue(i) in dvdson    13    0.1032158303E+00
   i, eigenvalue(i) in dvdson    14    0.1032183004E+00
   i, eigenvalue(i) in dvdson    15    0.1157706040E+00
   i, eigenvalue(i) in dvdson    16    0.1275760686E+00
 collapse basis         104          32
Eigenvalues of small (approximate) problem
   i, eigenvalue(i) in dvdson     1    0.8538944557E-01
   i, eigenvalue(i) in dvdson     2    0.8625153728E-01
   i, eigenvalue(i) in dvdson     3    0.8716900243E-01
   i, eigenvalue(i) in dvdson     4    0.8736284486E-01
   i, eigenvalue(i) in dvdson     5    0.9102221597E-01
   i, eigenvalue(i) in dvdson     6    0.9143689517E-01
   i, eigenvalue(i) in dvdson     7    0.9554158144E-01
   i, eigenvalue(i) in dvdson     8    0.9867853015E-01
   i, eigenvalue(i) in dvdson     9    0.1022967664E+00
   i, eigenvalue(i) in dvdson    10    0.1022982401E+00
   i, eigenvalue(i) in dvdson    11    0.1023025859E+00
   i, eigenvalue(i) in dvdson    12    0.1032142162E+00
   i, eigenvalue(i) in dvdson    13    0.1032156095E+00
   i, eigenvalue(i) in dvdson    14    0.1032179621E+00
   i, eigenvalue(i) in dvdson    15    0.1155813980E+00
   i, eigenvalue(i) in dvdson    16    0.1275757653E+00
Eigenvalues of small (approximate) problem
   i, eigenvalue(i) in dvdson     1    0.8538926063E-01
   i, eigenvalue(i) in dvdson     2    0.8625081991E-01
   i, eigenvalue(i) in dvdson     3    0.8716592012E-01
   i, eigenvalue(i) in dvdson     4    0.8736020299E-01
   i, eigenvalue(i) in dvdson     5    0.9102130434E-01
   i, eigenvalue(i) in dvdson     6    0.9143503021E-01
   i, eigenvalue(i) in dvdson     7    0.9553762530E-01
   i, eigenvalue(i) in dvdson     8    0.9867346160E-01
   i, eigenvalue(i) in dvdson     9    0.1022944785E+00
   i, eigenvalue(i) in dvdson    10    0.1022960282E+00
   i, eigenvalue(i) in dvdson    11    0.1022977142E+00
   i, eigenvalue(i) in dvdson    12    0.1032115606E+00
   i, eigenvalue(i) in dvdson    13    0.1032122505E+00
   i, eigenvalue(i) in dvdson    14    0.1032144544E+00
   i, eigenvalue(i) in dvdson    15    0.1148089440E+00
   i, eigenvalue(i) in dvdson    16    0.1275670375E+00
Eigenvalues of small (approximate) problem
   i, eigenvalue(i) in dvdson     1    0.8538924839E-01
   i, eigenvalue(i) in dvdson     2    0.8625061256E-01
   i, eigenvalue(i) in dvdson     3    0.8716583839E-01
   i, eigenvalue(i) in dvdson     4    0.8735972534E-01
   i, eigenvalue(i) in dvdson     5    0.9102112957E-01
   i, eigenvalue(i) in dvdson     6    0.9143478388E-01
   i, eigenvalue(i) in dvdson     7    0.9553732506E-01
   i, eigenvalue(i) in dvdson     8    0.9866899668E-01
   i, eigenvalue(i) in dvdson     9    0.1022942768E+00
   i, eigenvalue(i) in dvdson    10    0.1022956473E+00
   i, eigenvalue(i) in dvdson    11    0.1022973058E+00
   i, eigenvalue(i) in dvdson    12    0.1032105808E+00
   i, eigenvalue(i) in dvdson    13    0.1032114139E+00
   i, eigenvalue(i) in dvdson    14    0.1032122352E+00
   i, eigenvalue(i) in dvdson    15    0.1142307769E+00
   i, eigenvalue(i) in dvdson    16    0.1275349455E+00
 collapse basis         104          32
Eigenvalues of small (approximate) problem
   i, eigenvalue(i) in dvdson     1    0.8538921702E-01
   i, eigenvalue(i) in dvdson     2    0.8625060600E-01
   i, eigenvalue(i) in dvdson     3    0.8716574445E-01
   i, eigenvalue(i) in dvdson     4    0.8735970140E-01
   i, eigenvalue(i) in dvdson     5    0.9102111689E-01
   i, eigenvalue(i) in dvdson     6    0.9143476163E-01
   i, eigenvalue(i) in dvdson     7    0.9553728903E-01
   i, eigenvalue(i) in dvdson     8    0.9866894226E-01
   i, eigenvalue(i) in dvdson     9    0.1022942471E+00
   i, eigenvalue(i) in dvdson    10    0.1022955788E+00
   i, eigenvalue(i) in dvdson    11    0.1022972671E+00
   i, eigenvalue(i) in dvdson    12    0.1032105328E+00
   i, eigenvalue(i) in dvdson    13    0.1032113828E+00
   i, eigenvalue(i) in dvdson    14    0.1032122042E+00
   i, eigenvalue(i) in dvdson    15    0.1142122240E+00
   i, eigenvalue(i) in dvdson    16    0.1275259839E+00
Eigenvalues of small (approximate) problem
   i, eigenvalue(i) in dvdson     1    0.8538916195E-01
   i, eigenvalue(i) in dvdson     2    0.8625040187E-01
   i, eigenvalue(i) in dvdson     3    0.8716477850E-01
   i, eigenvalue(i) in dvdson     4    0.8735841849E-01
   i, eigenvalue(i) in dvdson     5    0.9102084858E-01
   i, eigenvalue(i) in dvdson     6    0.9143437987E-01
   i, eigenvalue(i) in dvdson     7    0.9553577947E-01
   i, eigenvalue(i) in dvdson     8    0.9866824570E-01
   i, eigenvalue(i) in dvdson     9    0.1022932546E+00
   i, eigenvalue(i) in dvdson    10    0.1022942613E+00
   i, eigenvalue(i) in dvdson    11    0.1022956810E+00
   i, eigenvalue(i) in dvdson    12    0.1032099255E+00
   i, eigenvalue(i) in dvdson    13    0.1032105525E+00
   i, eigenvalue(i) in dvdson    14    0.1032109813E+00
   i, eigenvalue(i) in dvdson    15    0.1139947100E+00
   i, eigenvalue(i) in dvdson    16    0.1274549771E+00
Eigenvalues of small (approximate) problem
   i, eigenvalue(i) in dvdson     1    0.8538915850E-01
   i, eigenvalue(i) in dvdson     2    0.8625039453E-01
   i, eigenvalue(i) in dvdson     3    0.8716474301E-01
   i, eigenvalue(i) in dvdson     4    0.8735810959E-01
   i, eigenvalue(i) in dvdson     5    0.9102082844E-01
   i, eigenvalue(i) in dvdson     6    0.9143425209E-01
   i, eigenvalue(i) in dvdson     7    0.9553576902E-01
   i, eigenvalue(i) in dvdson     8    0.9866822060E-01
   i, eigenvalue(i) in dvdson     9    0.1022927222E+00
   i, eigenvalue(i) in dvdson    10    0.1022931704E+00
   i, eigenvalue(i) in dvdson    11    0.1022954609E+00
   i, eigenvalue(i) in dvdson    12    0.1032097960E+00
   i, eigenvalue(i) in dvdson    13    0.1032098881E+00
   i, eigenvalue(i) in dvdson    14    0.1032104096E+00
   i, eigenvalue(i) in dvdson    15    0.1138596759E+00
   i, eigenvalue(i) in dvdson    16    0.1269299625E+00
 collapse basis         104          32
Eigenvalues of small (approximate) problem
   i, eigenvalue(i) in dvdson     1    0.8538914972E-01
   i, eigenvalue(i) in dvdson     2    0.8625039314E-01
   i, eigenvalue(i) in dvdson     3    0.8716471890E-01
   i, eigenvalue(i) in dvdson     4    0.8735807883E-01
   i, eigenvalue(i) in dvdson     5    0.9102082550E-01
   i, eigenvalue(i) in dvdson     6    0.9143424639E-01
   i, eigenvalue(i) in dvdson     7    0.9553572097E-01
   i, eigenvalue(i) in dvdson     8    0.9866820924E-01
   i, eigenvalue(i) in dvdson     9    0.1022927014E+00
   i, eigenvalue(i) in dvdson    10    0.1022931409E+00
   i, eigenvalue(i) in dvdson    11    0.1022954229E+00
   i, eigenvalue(i) in dvdson    12    0.1032097780E+00
   i, eigenvalue(i) in dvdson    13    0.1032098781E+00
   i, eigenvalue(i) in dvdson    14    0.1032103899E+00
   i, eigenvalue(i) in dvdson    15    0.1138574093E+00
   i, eigenvalue(i) in dvdson    16    0.1266259457E+00
 
 ============
 Timer stack:
 ------------
  1674647070.71  AMS
  1674647071.89  ADFEngine%Solve
  1674650629.91  Excitations
  1674650641.28  4
  1674650641.28  AllocDavidson
  1674650641.28  Loop
  1674650641.28  Lo2
  1674650642.43  In2
  1674650642.43  dvdsonhfso
  1674665103.00  dvdrvrhfso
  1675159491.69  addabshfso
  1675159491.69  Ophfso
  1675159491.69  Op
  1675165445.79  MatVecMul
  1675165457.99  SymMatOc
  1675165463.97  MatComb
  1675165463.97  Symao
  1675165464.48  tdhfmat
  1675165465.01  HF in tdhfmat
  1675165465.14  MirkoHF-CalcExchangeMatrix
  1675165465.15  HF1234
  1675165465.65  pp
  1675165465.65  DispatchAll
 ============

Process received SIGTERM
 WARNING: Nr of shared arrays in use at the end:           41
 Names of the Shared Arrays that have not been deleted
 projCoeff
 projCoeff
 projCoeff
 projCoeff
 projCoeff
 projCoeff
 activefrag%initialMOs%A%_A%eigbas
 activefrag%initialMOs%A%_A%eigbasr
 activefrag%initialMOs%A%_A%eigbasi
 activefrag%initialMOs%A%_A%eigbas
 activefrag%initialMOs%A%_A%eigbasr
 activefrag%initialMOs%A%_A%eigbasi
 grid%coords
 grid%w
 grid%distance2atoms
 grid%neighbors
 projCoeff
 fullGrid
 SerializedTensorsType
 SerializedTensorsType
 NewMMGridFunction%data4
 NewMMGridFunction%data4
 NewMMGridFunction%data4
 NewMMGridFunction%data4
 NewMMGridFunction%data4
 AllocDavidsonso:basis
 AllocDavidsonso:a2b
 dvdsonhfso:a1b
 activefrag%initialMOs%A%_A%eigbas
 activefrag%initialMOs%A%_A%eigbasr
 activefrag%initialMOs%A%_A%eigbasi
 projCoeff
 projCoeff
 fullGrid
 kMat
 zlmToCart
 pMatZlm
 kMatZlm
 pMatPermuted
 SerializedTensorsType
 SerializedTensorsType
