

 Parallel Execution: Process Information
 ==============================================================================
 Rank   Node Name                              NodeID   MyNodeRank  NodeMaster
    0   u-5-4.local                               0          0          0
    1   u-5-4.local                               0          1         -1
    2   u-5-4.local                               0          2         -1
    3   u-5-4.local                               0          3         -1
    4   u-5-4.local                               0          4         -1
    5   u-5-4.local                               0          5         -1
    6   u-5-4.local                               0          6         -1
    7   u-5-4.local                               0          7         -1
    8   u-5-4.local                               0          8         -1
    9   u-5-4.local                               0          9         -1
   10   u-5-4.local                               0         10         -1
   11   u-5-4.local                               0         11         -1
   12   u-5-4.local                               1          0          1
   13   u-5-4.local                               1          1         -1
   14   u-5-4.local                               1          2         -1
   15   u-5-4.local                               1          3         -1
   16   u-5-4.local                               1          4         -1
   17   u-5-4.local                               1          5         -1
   18   u-5-4.local                               1          6         -1
   19   u-5-4.local                               1          7         -1
   20   u-5-4.local                               1          8         -1
   21   u-5-4.local                               1          9         -1
   22   u-5-4.local                               1         10         -1
   23   u-5-4.local                               1         11         -1
 ==============================================================================


May use up to 31144MB of RAM as shared memory on node 0
May use up to 31250MB of RAM as shared memory on node 1

 *******************************************************************************
 *                                                                             *
 *  --------------------------------                                           *
 *   Amsterdam Modeling Suite (AMS)              2021.106                      *
 *  --------------------------------                                           *
 *                                               r99350 2021-12-03             *
 *                                                                             *
 *                                                                             *
 *                              =================                              *
 *                              |               |                              *
 *                              |     A M S     |                              *
 *                              |               |                              *
 *                              =================                              *
 *                                                                             *
 *                                                                             *
 *   Online information and documentation:  https://www.scm.com/support/       *
 *   E-mail:  support@scm.com   info@scm.com                                   *
 *                                                                             *
 *   Scientific publications using AMS results must be properly referenced     *
 *   See the User Manuals (or the web site) for recommended citations          *
 *   The terms and conditions of the End User License Agreement apply to       *
 *   the use of AMS, https://www.scm.com/license-terms/                        *
 *                                                                             *
 **********************  x86_64_linux_intel / intelmpi  ************************
 
 Licensed to: Dr. Val?rie Vallet / Laboratoire PhLAM UMR 8523 / Villeneuve d'Ascq Cedex / FRANCE 2023-01-20 17:43:01
 SCM User ID: u10325
  
 AMS 2021.106  RunTime: Jan25-2023 12:44:15  ShM Nodes: 2  Procs: 24

 AMS jobname: em-uo2_2cl_2phen.tddft-camb3lyp.SO
 AMS jobid  : 264217160

 Start   directory: /home/vallet/Bent-Uranyl/uo2_2cl_2phen/uo2_2cl_2phen/bent/geom-pbe0-d3-gp/ams-absorption-emission/fullkernel/
 Results directory: /home/vallet/Bent-Uranyl/uo2_2cl_2phen/uo2_2cl_2phen/bent/geom-pbe0-d3-gp/ams-absorption-emission/fullkernel/em-uo2_2cl_2phen.tddft-camb3lyp.SO.results/
 Scratch directory: /state/partition1/vallet/923102.phlam-s-sakura/amstmp_em-uo2_2cl_2phen.tddft-camb3lyp.SO_kid0.264217160/


 Communication costs MPI_COMM_WORLD:      2.987 usec per message,   0.0123 usec per 8-byte item
 Communication costs for intra-node:      1.823 usec per message,   0.0077 usec per 8-byte item

 RNG seed: -767248063 1916400068 1740278131 -424766661 -650331860 -642462140 -1503219023 -1896641959



                     *************************************************************************
                     *  ADF 2021.106  RunTime: Jan25-2023 12:44:15  ShM Nodes: 2  Procs: 24  *
                     *************************************************************************
  
       ****************************
       * SINGLE POINT CALCULATION *
       ****************************
 
--------
Geometry
--------
Formula: C24H16Cl2N4O2U
Atoms
  Index Symbol   x (angstrom)   y (angstrom)   z (angstrom)
      1      U     0.08237700     0.00695700     0.02067100
      2      O     0.37779900    -0.28261400     1.75292300
      3      O     0.36527400     0.29973800    -1.71313400
      4      N     2.40816100     1.37095900     0.24736400
      5      C     2.41059100     2.67101200     0.47384200
      6      H     1.43344500     3.13368800     0.55772200
      7      C     3.58132000     3.42630000     0.60089300
      8      H     3.50816700     4.49013600     0.78653100
      9      C     4.78979000     2.79752500     0.48625300
     10      H     5.72232600     3.34422700     0.57745400
     11      C     4.82320600     1.41600000     0.24567300
     12      C     6.05162000     0.70637600     0.11681700
     13      H     6.97920600     1.26024100     0.20895500
     14      C     6.05842500    -0.62451100    -0.11468300
     15      H     6.99162100    -1.16770500    -0.21346400
     16      C     4.83734200    -1.34820100    -0.23468400
     17      C     4.81805700    -2.73009800    -0.47466500
     18      H     5.75612900    -3.26609000    -0.57242900
     19      C     3.61609300    -3.37275200    -0.58037400
     20      H     3.55382500    -4.43743700    -0.76511400
     21      C     2.43771600    -2.63088400    -0.44524500
     22      H     1.46537000    -3.10475100    -0.52213700
     23      N     2.42199100    -1.33083500    -0.21924500
     24      C     3.59948900    -0.68166700    -0.11294700
     25      C     3.59224200     0.73534500     0.13258000
     26     Cl    -0.82050300     2.48924800     0.43647900
     27     Cl    -0.79496000    -2.48522800    -0.39051900
     28      N    -2.30572800    -0.22675500     1.36061900
     29      C    -2.29579200    -0.44131300     2.65935800
     30      H    -1.31952200    -0.51231400     3.11944400
     31      C    -3.45923700    -0.57377400     3.42419100
     32      H    -3.37971900    -0.74946500     4.48946000
     33      C    -4.67521400    -0.47740800     2.80294900
     34      H    -5.60168500    -0.57413600     3.35882100
     35      C    -4.71940800    -0.24916100     1.42046500
     36      C    -5.94650000    -0.13706100     0.70355100
     37      H    -6.87618300    -0.23275900     1.25358200
     38      C    -5.95127800     0.08325400    -0.63011100
     39      H    -6.88488400     0.16846600    -1.17519900
     40      C    -4.72934800     0.20911800    -1.35352700
     41      C    -4.69507100     0.43777100    -2.73622200
     42      H    -5.62551300     0.52402000    -3.28716400
     43      C    -3.48357300     0.54777300    -3.36391300
     44      H    -3.41169300     0.72427600    -4.42959000
     45      C    -2.31466800     0.42847500    -2.60526800
     46      H    -1.34171900     0.51045100    -3.07053600
     47      N    -2.31529100     0.21389300    -1.30649100
     48      C    -3.49689200     0.10377900    -0.67715700
     49      C    -3.49182500    -0.12997200     0.73757100
 
Total System Charge             0.00000
Bonding info available!
 
 
----------------
ADF Engine Input
----------------
 
 Basis
 Type TZ2P
 Core None
 End
 AllPoints Yes
 XC
 libxc CAM-B3LYP
 End
 Relativity
 Level Spin-Orbit
 End
 Symmetry NOSYM
 Excitations
 Lowest 16
 NTO Yes
 Davidson
 End
 FullKernel Yes
 End
 

 Title: *** (NO TITLE) ***

 *** adf ***



 ===========================
 A T T A C H E D   F I L E S
 ===========================
  
 Restart
 /home/vallet/Bent-Uranyl/uo2_2cl_2phen/uo2_2cl_2phen/bent/geom-pbe0-d3-gp/ams-a
 bsorption-emission/fullkernel/dep-adf.rkf*** adf ***



 ===============================
 M O D E L   P A R A M E T E R S
 ===============================
  
 Range separated functional parameters:
 RANGESEP OMEGA=    0.330000 ALPHA=    0.190000 BETA=    0.460000 ERF-LONGRANGE 
                                                                                
   
 DENSITY FUNCTIONAL POTENTIAL (scf)

   *** Range Separated Functional ***

 Regions:
   LibXC version: 5. 1. 2
   Exchange-correlation  T T T T F F F T T F F F F F F F F F F F F
   HF parameter =   0.65000000
   LIBXC GAMMA=    0.330000 ALPHA=    0.650000 BETA=   -0.460000
   CAM version of B3LYP (Hybrid GGA)
[1] T. Yanai, D. P. Tew, and N. C. Handy, Chem. Phys. Lett. 393, 51 (2004)

 SPIN  (restricted / unrestr.)
    Molecule:                          Restricted                               
    Fragments:                         Restricted                               

 OTHER ASPECTS
    Relativistic Corrections:          Spin-Orbit (ZORA,MAPA)                  == Not Default ==

    Nuclear Charge Density Model:      Point Charge Nuclei                      
    Core Treatment:                    Frozen Orbital(s)                        

    Hyperfine or Zeeman Interaction:   ---                                      


 Fragment File(s)
 ----------------
 U:
         file : /home/vallet/Bent-Uranyl/uo2_2cl_2phen/uo2_2cl_2phen/bent/geom-pbe0-d3-gp/ams-absorption-emission/fullkernel/em-uo2_2cl_2phen.tddft-camb3lyp.SO.results/t21.6C1485AF.U
         jobid: 0
         title: Uranium (TZ2P, all electron)
 O:
         file : /home/vallet/Bent-Uranyl/uo2_2cl_2phen/uo2_2cl_2phen/bent/geom-pbe0-d3-gp/ams-absorption-emission/fullkernel/em-uo2_2cl_2phen.tddft-camb3lyp.SO.results/t21.1786ABF1.O
         jobid: 0
         title: Oxygen (TZ2P)
 N:
         file : /home/vallet/Bent-Uranyl/uo2_2cl_2phen/uo2_2cl_2phen/bent/geom-pbe0-d3-gp/ams-absorption-emission/fullkernel/em-uo2_2cl_2phen.tddft-camb3lyp.SO.results/t21.3C40D2C.N
         jobid: 0
         title: Nitrogen (TZ2P)
 C:
         file : /home/vallet/Bent-Uranyl/uo2_2cl_2phen/uo2_2cl_2phen/bent/geom-pbe0-d3-gp/ams-absorption-emission/fullkernel/em-uo2_2cl_2phen.tddft-camb3lyp.SO.results/t21.5D40A1EA.C
         jobid: 0
         title: Carbon (TZ2P)
 H:
         file : /home/vallet/Bent-Uranyl/uo2_2cl_2phen/uo2_2cl_2phen/bent/geom-pbe0-d3-gp/ams-absorption-emission/fullkernel/em-uo2_2cl_2phen.tddft-camb3lyp.SO.results/t21.49E308CA.H
         jobid: 0
         title: Hydrogen (TZ2P)
 Cl:
         file : /home/vallet/Bent-Uranyl/uo2_2cl_2phen/uo2_2cl_2phen/bent/geom-pbe0-d3-gp/ams-absorption-emission/fullkernel/em-uo2_2cl_2phen.tddft-camb3lyp.SO.results/t21.37D265EA.Cl
         jobid: 0
         title: Chlorine (TZ2P)



 ===============
 G E O M E T R Y  ***  3D  Molecule  ***
 ===============
  

 ATOMS
 =====                            X Y Z                    CHARGE
                                (Angstrom)             Nucl     +Core       At.Mass
                       --------------------------    ----------------       -------
    1  U               0.0824    0.0070    0.0207     92.00     92.00      238.0508
    2  O               0.3778   -0.2826    1.7529      8.00      8.00       15.9949
    3  O               0.3653    0.2997   -1.7131      8.00      8.00       15.9949
    4  N               2.4082    1.3710    0.2474      7.00      7.00       14.0031
    5  C               2.4106    2.6710    0.4738      6.00      6.00       12.0000
    6  H               1.4334    3.1337    0.5577      1.00      1.00        1.0078
    7  C               3.5813    3.4263    0.6009      6.00      6.00       12.0000
    8  H               3.5082    4.4901    0.7865      1.00      1.00        1.0078
    9  C               4.7898    2.7975    0.4863      6.00      6.00       12.0000
   10  H               5.7223    3.3442    0.5775      1.00      1.00        1.0078
   11  C               4.8232    1.4160    0.2457      6.00      6.00       12.0000
   12  C               6.0516    0.7064    0.1168      6.00      6.00       12.0000
   13  H               6.9792    1.2602    0.2090      1.00      1.00        1.0078
   14  C               6.0584   -0.6245   -0.1147      6.00      6.00       12.0000
   15  H               6.9916   -1.1677   -0.2135      1.00      1.00        1.0078
   16  C               4.8373   -1.3482   -0.2347      6.00      6.00       12.0000
   17  C               4.8181   -2.7301   -0.4747      6.00      6.00       12.0000
   18  H               5.7561   -3.2661   -0.5724      1.00      1.00        1.0078
   19  C               3.6161   -3.3728   -0.5804      6.00      6.00       12.0000
   20  H               3.5538   -4.4374   -0.7651      1.00      1.00        1.0078
   21  C               2.4377   -2.6309   -0.4452      6.00      6.00       12.0000
   22  H               1.4654   -3.1048   -0.5221      1.00      1.00        1.0078
   23  N               2.4220   -1.3308   -0.2192      7.00      7.00       14.0031
   24  C               3.5995   -0.6817   -0.1129      6.00      6.00       12.0000
   25  C               3.5922    0.7353    0.1326      6.00      6.00       12.0000
   26  Cl             -0.8205    2.4892    0.4365     17.00     17.00       34.9689
   27  Cl             -0.7950   -2.4852   -0.3905     17.00     17.00       34.9689
   28  N              -2.3057   -0.2268    1.3606      7.00      7.00       14.0031
   29  C              -2.2958   -0.4413    2.6594      6.00      6.00       12.0000
   30  H              -1.3195   -0.5123    3.1194      1.00      1.00        1.0078
   31  C              -3.4592   -0.5738    3.4242      6.00      6.00       12.0000
   32  H              -3.3797   -0.7495    4.4895      1.00      1.00        1.0078
   33  C              -4.6752   -0.4774    2.8029      6.00      6.00       12.0000
   34  H              -5.6017   -0.5741    3.3588      1.00      1.00        1.0078
   35  C              -4.7194   -0.2492    1.4205      6.00      6.00       12.0000
   36  C              -5.9465   -0.1371    0.7036      6.00      6.00       12.0000
   37  H              -6.8762   -0.2328    1.2536      1.00      1.00        1.0078
   38  C              -5.9513    0.0833   -0.6301      6.00      6.00       12.0000
   39  H              -6.8849    0.1685   -1.1752      1.00      1.00        1.0078
   40  C              -4.7293    0.2091   -1.3535      6.00      6.00       12.0000
   41  C              -4.6951    0.4378   -2.7362      6.00      6.00       12.0000
   42  H              -5.6255    0.5240   -3.2872      1.00      1.00        1.0078
   43  C              -3.4836    0.5478   -3.3639      6.00      6.00       12.0000
   44  H              -3.4117    0.7243   -4.4296      1.00      1.00        1.0078
   45  C              -2.3147    0.4285   -2.6053      6.00      6.00       12.0000
   46  H              -1.3417    0.5105   -3.0705      1.00      1.00        1.0078
   47  N              -2.3153    0.2139   -1.3065      7.00      7.00       14.0031
   48  C              -3.4969    0.1038   -0.6772      6.00      6.00       12.0000
   49  C              -3.4918   -0.1300    0.7376      6.00      6.00       12.0000


 FRAGMENTS
 =========                                     Atoms in this Fragment     Cart. coord.s (Angstrom)
                                               -------------------------------------------------------
    1  U                                                 1  U            0.0824    0.0070    0.0207
    2  O                                                 2  O            0.3778   -0.2826    1.7529
    3  O                                                 3  O            0.3653    0.2997   -1.7131
    4  N                                                 4  N            2.4082    1.3710    0.2474
    5  N                                                23  N            2.4220   -1.3308   -0.2192
    6  N                                                28  N           -2.3057   -0.2268    1.3606
    7  N                                                47  N           -2.3153    0.2139   -1.3065
    8  C                                                 5  C            2.4106    2.6710    0.4738
    9  C                                                 7  C            3.5813    3.4263    0.6009
   10  C                                                 9  C            4.7898    2.7975    0.4863
   11  C                                                11  C            4.8232    1.4160    0.2457
   12  C                                                12  C            6.0516    0.7064    0.1168
   13  C                                                14  C            6.0584   -0.6245   -0.1147
   14  C                                                16  C            4.8373   -1.3482   -0.2347
   15  C                                                17  C            4.8181   -2.7301   -0.4747
   16  C                                                19  C            3.6161   -3.3728   -0.5804
   17  C                                                21  C            2.4377   -2.6309   -0.4452
   18  C                                                24  C            3.5995   -0.6817   -0.1129
   19  C                                                25  C            3.5922    0.7353    0.1326
   20  C                                                29  C           -2.2958   -0.4413    2.6594
   21  C                                                31  C           -3.4592   -0.5738    3.4242
   22  C                                                33  C           -4.6752   -0.4774    2.8029
   23  C                                                35  C           -4.7194   -0.2492    1.4205
   24  C                                                36  C           -5.9465   -0.1371    0.7036
   25  C                                                38  C           -5.9513    0.0833   -0.6301
   26  C                                                40  C           -4.7293    0.2091   -1.3535
   27  C                                                41  C           -4.6951    0.4378   -2.7362
   28  C                                                43  C           -3.4836    0.5478   -3.3639
   29  C                                                45  C           -2.3147    0.4285   -2.6053
   30  C                                                48  C           -3.4969    0.1038   -0.6772
   31  C                                                49  C           -3.4918   -0.1300    0.7376
   32  H                                                 6  H            1.4334    3.1337    0.5577
   33  H                                                 8  H            3.5082    4.4901    0.7865
   34  H                                                10  H            5.7223    3.3442    0.5775
   35  H                                                13  H            6.9792    1.2602    0.2090
   36  H                                                15  H            6.9916   -1.1677   -0.2135
   37  H                                                18  H            5.7561   -3.2661   -0.5724
   38  H                                                20  H            3.5538   -4.4374   -0.7651
   39  H                                                22  H            1.4654   -3.1048   -0.5221
   40  H                                                30  H           -1.3195   -0.5123    3.1194
   41  H                                                32  H           -3.3797   -0.7495    4.4895
   42  H                                                34  H           -5.6017   -0.5741    3.3588
   43  H                                                37  H           -6.8762   -0.2328    1.2536
   44  H                                                39  H           -6.8849    0.1685   -1.1752
   45  H                                                42  H           -5.6255    0.5240   -3.2872
   46  H                                                44  H           -3.4117    0.7243   -4.4296
   47  H                                                46  H           -1.3417    0.5105   -3.0705
   48  Cl                                               26  Cl          -0.8205    2.4892    0.4365
   49  Cl                                               27  Cl          -0.7950   -2.4852   -0.3905



 =====================================
 S Y M M E T R Y ,   E L E C T R O N S
 =====================================
  
 Symmetry: NOSYM

 Double Group Irreducible Representations (spinor symmetry)
 -----------------------------------------------------------
 A1/2

 Symmetry is NOT used when fitting density


 Configuration of Valence Electrons
 ==================================
 ( determined in the SCF procedure )

 Total:   330

 Net Charge: 0 (Nuclei minus Electrons)

 Aufbau principle for MO occupations will be applied through SCF cycle no.     150
 Thereafter, the program will assign electrons to MOs that are spatially
 similar to the occupied MOs in a "reference" cycle ("KeepOrbitals").
 The reference cycle is always the PREVIOUS cycle: it will evolve with
 the SCF procedure.
1
 ***************************************************************************************************



                                      ****************************************
                                      *  B U I L D : (Fragments, Functions)  *
                                      ****************************************
  

 Total nr. of (C)SFOs (summation over all irreps) :  1159

 Specify PRINT SFO in the input file to get a full list

 Nr. of SFOs for ir.rep.           A :  1159



 ================================
 (Slater-type)  F U N C T I O N S  ***  (Basis and Fit)  ***
 ================================
  

 Atom Type    1  (U)
 ==============

 Valence Basis Sets:  43
 -----------------------
   1 S 1060.000000
   1 S  245.000000
   1 S  108.800000
   2 S  134.900000
   2 S   47.200000
   3 S   60.000000
   3 S   25.900000
   4 S   15.800000
   4 S   11.100000
   5 S   10.450000
   5 S    7.250000
   6 S    5.000000
   6 S    3.300000
   7 S    2.350000
   7 S    1.550000
   7 S    1.020000
   2 P  245.000000
   2 P   85.500000
   2 P   44.200000
   3 P   25.100000
   3 P   18.100000
   4 P   17.900000
   4 P   12.300000
   5 P    8.650000
   5 P    6.000000
   6 P    4.450000
   6 P    3.000000
   6 P    2.100000
   3 D   33.250000
   3 D   22.050000
   4 D   15.250000
   4 D   10.550000
   5 D    7.250000
   5 D    4.650000
   6 D    2.900000
   6 D    1.600000
   6 D    0.880000
   4 F   17.450000
   4 F    9.600000
   5 F    5.800000
   5 F    3.000000
   5 F    1.390000
   7 P    1.550000

 Charge Fitting Sets (for the computation of the Coulomb Potential):  87
 -----------------------------------------------------------------------
   1 S 2120.000000
   1 S 1594.965000
   1 S 1199.960000
   1 S  902.780000
   1 S  679.200000
   1 S  510.990000
   1 S  384.440000
   1 S  289.230000
   1 S  217.600000
   1 S  129.260000
   2 S  142.240000
   2 S   95.100000
   3 S   93.370000
   3 S   66.470000
   4 S   62.580000
   4 S   46.380000
   5 S   42.820000
   5 S   32.660000
   6 S   29.850000
   6 S   23.270000
   7 S   21.150000
   7 S   16.770000
   8 S   15.210000
   8 S   12.230000
   9 S   11.070000
   9 S    9.010000
  10 S    8.150000
  10 S    6.700000
  11 S    6.070000
  11 S    5.030000
  12 S    4.550000
  12 S    3.810000
  12 S    3.180000
  13 S    2.880000
  13 S    2.420000
  13 S    2.040000
   2 P  153.000000
   3 P  127.690000
   4 P  104.620000
   5 P   85.360000
   6 P   69.720000
   7 P   57.130000
   7 P   40.980000
   8 P   33.710000
   8 P   24.670000
   9 P   20.380000
   9 P   15.180000
  10 P   12.590000
  10 P    9.510000
  11 P    7.920000
  11 P    6.060000
  12 P    5.070000
  12 P    3.920000
  13 P    3.290000
  13 P    2.570000
   3 D  130.850000
   4 D   91.890000
   5 D   65.340000
   6 D   47.080000
   7 D   34.350000
   8 D   25.360000
   9 D   18.910000
   9 D   12.740000
  10 D    9.600000
  10 D    6.590000
  11 D    5.010000
  11 D    3.500000
  12 D    2.680000
  12 D    1.900000
   4 F  118.400000
   5 F   72.780000
   6 F   45.920000
   7 F   29.630000
   8 F   19.500000
   9 F   13.050000
  10 F    8.870000
  10 F    5.510000
  11 F    3.800000
  11 F    2.410000
   5 G   53.800000
   6 G   31.220000
   7 G   18.640000
   8 G   11.410000
   9 G    7.140000
  10 G    4.550000
  11 G    2.950000
  11 G    1.760000

 Atom Type    2  (O)
 ==============

 Valence Basis Sets:  10
 -----------------------
   1 S    9.800000
   1 S    6.800000
   2 S    7.580000
   2 S    2.880000
   2 S    1.720000
   2 P    4.080000
   2 P    2.080000
   2 P    1.120000
   3 D    2.000000
   4 F    3.000000

 Charge Fitting Sets (for the computation of the Coulomb Potential):  22
 -----------------------------------------------------------------------
   1 S   19.600000
   2 S   22.600000
   2 S   15.680000
   2 S   10.890000
   2 S    7.560000
   3 S    7.690000
   3 S    5.650000
   3 S    4.150000
   3 S    3.050000
   3 S    2.240000
   2 P   12.860000
   2 P    7.680000
   3 P    6.780000
   3 P    4.390000
   3 P    2.840000
   3 D    8.800000
   3 D    5.580000
   3 D    3.530000
   3 D    2.240000
   4 F    6.200000
   4 F    3.700000
   5 G    4.500000

 Atom Type    3  (N)
 ==============

 Valence Basis Sets:  10
 -----------------------
   1 S    8.740000
   1 S    5.900000
   2 S    5.150000
   2 S    2.500000
   2 S    1.500000
   2 P    3.680000
   2 P    1.880000
   2 P    1.000000
   3 D    2.200000
   4 F    3.300000

 Charge Fitting Sets (for the computation of the Coulomb Potential):  22
 -----------------------------------------------------------------------
   1 S   17.480000
   2 S   20.150000
   2 S   13.990000
   2 S    9.710000
   2 S    6.740000
   3 S    6.860000
   3 S    5.040000
   3 S    3.700000
   3 S    2.720000
   3 S    2.000000
   2 P   11.320000
   2 P    6.730000
   3 P    5.920000
   3 P    3.820000
   3 P    2.460000
   3 D    8.100000
   3 D    5.080000
   3 D    3.190000
   3 D    2.000000
   4 F    5.800000
   4 F    3.600000
   5 G    4.500000

 Atom Type    4  (C)
 ==============

 Valence Basis Sets:  10
 -----------------------
   1 S    7.680000
   1 S    5.000000
   2 S    1.280000
   2 S    2.100000
   2 S    4.600000
   2 P    0.820000
   2 P    1.480000
   2 P    2.940000
   3 D    2.200000
   4 F    3.300000

 Charge Fitting Sets (for the computation of the Coulomb Potential):  22
 -----------------------------------------------------------------------
   1 S   15.360000
   2 S   17.530000
   2 S   12.070000
   2 S    8.310000
   2 S    5.730000
   3 S    5.780000
   3 S    4.220000
   3 S    3.080000
   3 S    2.250000
   3 S    1.640000
   2 P    9.880000
   2 P    5.800000
   3 P    5.050000
   3 P    3.230000
   3 P    2.060000
   3 D    7.200000
   3 D    4.400000
   3 D    2.690000
   3 D    1.640000
   4 F    5.400000
   4 F    3.550000
   5 G    4.500000

 Atom Type    5  (H)
 ==============

 Valence Basis Sets:   5
 -----------------------
   1 S    0.690000
   1 S    0.920000
   1 S    1.580000
   2 P    1.250000
   3 D    2.500000

 Charge Fitting Sets (for the computation of the Coulomb Potential):  11
 -----------------------------------------------------------------------
   1 S    3.160000
   1 S    2.090000
   1 S    1.380000
   2 S    1.500000
   2 P    4.000000
   2 P    2.650000
   2 P    1.750000
   3 D    4.000000
   3 D    2.500000
   4 F    3.000000
   5 G    4.000000

 Atom Type    6  (Cl)
 ==============

 Valence Basis Sets:  14
 -----------------------
   1 S   20.300000
   1 S   15.250000
   2 S    6.250000
   2 S    4.450000
   2 P    8.850000
   2 P    5.050000
   3 S    3.450000
   3 S    2.300000
   3 S    1.600000
   3 P    3.350000
   3 P    2.050000
   3 P    1.200000
   3 D    2.000000
   4 F    2.000000

 Charge Fitting Sets (for the computation of the Coulomb Potential):  30
 -----------------------------------------------------------------------
   1 S   40.600000
   1 S   24.830000
   2 S   28.080000
   2 S   19.200000
   3 S   19.250000
   3 S   13.970000
   3 S   10.130000
   4 S    9.710000
   4 S    7.320000
   4 S    5.510000
   5 S    5.170000
   5 S    4.000000
   5 S    3.100000
   5 S    2.400000
   2 P   29.150000
   3 P   21.740000
   4 P   16.160000
   4 P    9.600000
   5 P    7.180000
   5 P    4.480000
   5 P    2.800000
   3 D   21.950000
   4 D   15.750000
   4 D    9.040000
   5 D    6.550000
   5 D    3.960000
   5 D    2.400000
   4 F    5.000000
   4 F    3.000000
   5 G    3.500000


 BAS: List of all Elementary Cartesian Basis Functions
 =====================================================

 The numbering in the list below (to the right of the function characteristics) is referred
 to in print-outs of MO eigenvectors and Mulliken populations in the BAS representation
 (as contrasted to the SFO representation).

 Notes:
 1. The functions are characterized by a polynomial prefactor (powers of x,y,z and r) and
    an exponential decay factor alpha.
 2. Since the basis sets are specific for an atom TYPE, the individual functions occur on
    all atoms of that type.
 3. The word 'Core' in the left margin signals that it is a Core Function (CF) : not a
    degree of freedom in the valence set, but only used to ensure orthogonalization of
    the other valence basis functions on the frozen Core Orbitals.


 (power of) X  Y  Z  R     Alpha  on Atom
            ==========     =====     ==========

 U                                    1
                                  ---------------------------------------------------------------------------
            0  0  0  0  1060.000      1
            0  0  0  0   245.000      2
            0  0  0  0   108.800      3
            0  0  0  1   134.900      4
            0  0  0  1    47.200      5
            0  0  0  2    60.000      6
            0  0  0  2    25.900      7
            0  0  0  3    15.800      8
            0  0  0  3    11.100      9
            0  0  0  4    10.450     10
            0  0  0  4     7.250     11
            0  0  0  5     5.000     12
            0  0  0  5     3.300     13
            0  0  0  6     2.350     14
            0  0  0  6     1.550     15
            0  0  0  6     1.020     16
            1  0  0  0   245.000     17
            0  1  0  0   245.000     18
            0  0  1  0   245.000     19
            1  0  0  0    85.500     20
            0  1  0  0    85.500     21
            0  0  1  0    85.500     22
            1  0  0  0    44.200     23
            0  1  0  0    44.200     24
            0  0  1  0    44.200     25
            1  0  0  1    25.100     26
            0  1  0  1    25.100     27
            0  0  1  1    25.100     28
            1  0  0  1    18.100     29
            0  1  0  1    18.100     30
            0  0  1  1    18.100     31
            1  0  0  2    17.900     32
            0  1  0  2    17.900     33
            0  0  1  2    17.900     34
            1  0  0  2    12.300     35
            0  1  0  2    12.300     36
            0  0  1  2    12.300     37
            1  0  0  3     8.650     38
            0  1  0  3     8.650     39
            0  0  1  3     8.650     40
            1  0  0  3     6.000     41
            0  1  0  3     6.000     42
            0  0  1  3     6.000     43
            1  0  0  4     4.450     44
            0  1  0  4     4.450     45
            0  0  1  4     4.450     46
            1  0  0  4     3.000     47
            0  1  0  4     3.000     48
            0  0  1  4     3.000     49
            1  0  0  4     2.100     50
            0  1  0  4     2.100     51
            0  0  1  4     2.100     52
            2  0  0  0    33.250     53
            1  1  0  0    33.250     54
            1  0  1  0    33.250     55
            0  2  0  0    33.250     56
            0  1  1  0    33.250     57
            0  0  2  0    33.250     58
            2  0  0  0    22.050     59
            1  1  0  0    22.050     60
            1  0  1  0    22.050     61
            0  2  0  0    22.050     62
            0  1  1  0    22.050     63
            0  0  2  0    22.050     64
            2  0  0  1    15.250     65
            1  1  0  1    15.250     66
            1  0  1  1    15.250     67
            0  2  0  1    15.250     68
            0  1  1  1    15.250     69
            0  0  2  1    15.250     70
            2  0  0  1    10.550     71
            1  1  0  1    10.550     72
            1  0  1  1    10.550     73
            0  2  0  1    10.550     74
            0  1  1  1    10.550     75
            0  0  2  1    10.550     76
            2  0  0  2     7.250     77
            1  1  0  2     7.250     78
            1  0  1  2     7.250     79
            0  2  0  2     7.250     80
            0  1  1  2     7.250     81
            0  0  2  2     7.250     82
            2  0  0  2     4.650     83
            1  1  0  2     4.650     84
            1  0  1  2     4.650     85
            0  2  0  2     4.650     86
            0  1  1  2     4.650     87
            0  0  2  2     4.650     88
            2  0  0  3     2.900     89
            1  1  0  3     2.900     90
            1  0  1  3     2.900     91
            0  2  0  3     2.900     92
            0  1  1  3     2.900     93
            0  0  2  3     2.900     94
            2  0  0  3     1.600     95
            1  1  0  3     1.600     96
            1  0  1  3     1.600     97
            0  2  0  3     1.600     98
            0  1  1  3     1.600     99
            0  0  2  3     1.600    100
            2  0  0  3     0.880    101
            1  1  0  3     0.880    102
            1  0  1  3     0.880    103
            0  2  0  3     0.880    104
            0  1  1  3     0.880    105
            0  0  2  3     0.880    106
            3  0  0  0    17.450    107
            2  1  0  0    17.450    108
            2  0  1  0    17.450    109
            1  2  0  0    17.450    110
            1  1  1  0    17.450    111
            1  0  2  0    17.450    112
            0  3  0  0    17.450    113
            0  2  1  0    17.450    114
            0  1  2  0    17.450    115
            0  0  3  0    17.450    116
            3  0  0  0     9.600    117
            2  1  0  0     9.600    118
            2  0  1  0     9.600    119
            1  2  0  0     9.600    120
            1  1  1  0     9.600    121
            1  0  2  0     9.600    122
            0  3  0  0     9.600    123
            0  2  1  0     9.600    124
            0  1  2  0     9.600    125
            0  0  3  0     9.600    126
            3  0  0  1     5.800    127
            2  1  0  1     5.800    128
            2  0  1  1     5.800    129
            1  2  0  1     5.800    130
            1  1  1  1     5.800    131
            1  0  2  1     5.800    132
            0  3  0  1     5.800    133
            0  2  1  1     5.800    134
            0  1  2  1     5.800    135
            0  0  3  1     5.800    136
            3  0  0  1     3.000    137
            2  1  0  1     3.000    138
            2  0  1  1     3.000    139
            1  2  0  1     3.000    140
            1  1  1  1     3.000    141
            1  0  2  1     3.000    142
            0  3  0  1     3.000    143
            0  2  1  1     3.000    144
            0  1  2  1     3.000    145
            0  0  3  1     3.000    146
            3  0  0  1     1.390    147
            2  1  0  1     1.390    148
            2  0  1  1     1.390    149
            1  2  0  1     1.390    150
            1  1  1  1     1.390    151
            1  0  2  1     1.390    152
            0  3  0  1     1.390    153
            0  2  1  1     1.390    154
            0  1  2  1     1.390    155
            0  0  3  1     1.390    156
            1  0  0  5     1.550    157
            0  1  0  5     1.550    158
            0  0  1  5     1.550    159

 O                                    2    3
                                  ---------------------------------------------------------------------------
            0  0  0  0     9.800    160  190
            0  0  0  0     6.800    161  191
            0  0  0  1     7.580    162  192
            0  0  0  1     2.880    163  193
            0  0  0  1     1.720    164  194
            1  0  0  0     4.080    165  195
            0  1  0  0     4.080    166  196
            0  0  1  0     4.080    167  197
            1  0  0  0     2.080    168  198
            0  1  0  0     2.080    169  199
            0  0  1  0     2.080    170  200
            1  0  0  0     1.120    171  201
            0  1  0  0     1.120    172  202
            0  0  1  0     1.120    173  203
            2  0  0  0     2.000    174  204
            1  1  0  0     2.000    175  205
            1  0  1  0     2.000    176  206
            0  2  0  0     2.000    177  207
            0  1  1  0     2.000    178  208
            0  0  2  0     2.000    179  209
            3  0  0  0     3.000    180  210
            2  1  0  0     3.000    181  211
            2  0  1  0     3.000    182  212
            1  2  0  0     3.000    183  213
            1  1  1  0     3.000    184  214
            1  0  2  0     3.000    185  215
            0  3  0  0     3.000    186  216
            0  2  1  0     3.000    187  217
            0  1  2  0     3.000    188  218
            0  0  3  0     3.000    189  219

 N                                    4    5    6    7
                                  ---------------------------------------------------------------------------
            0  0  0  0     8.740    220  250  280  310
            0  0  0  0     5.900    221  251  281  311
            0  0  0  1     5.150    222  252  282  312
            0  0  0  1     2.500    223  253  283  313
            0  0  0  1     1.500    224  254  284  314
            1  0  0  0     3.680    225  255  285  315
            0  1  0  0     3.680    226  256  286  316
            0  0  1  0     3.680    227  257  287  317
            1  0  0  0     1.880    228  258  288  318
            0  1  0  0     1.880    229  259  289  319
            0  0  1  0     1.880    230  260  290  320
            1  0  0  0     1.000    231  261  291  321
            0  1  0  0     1.000    232  262  292  322
            0  0  1  0     1.000    233  263  293  323
            2  0  0  0     2.200    234  264  294  324
            1  1  0  0     2.200    235  265  295  325
            1  0  1  0     2.200    236  266  296  326
            0  2  0  0     2.200    237  267  297  327
            0  1  1  0     2.200    238  268  298  328
            0  0  2  0     2.200    239  269  299  329
            3  0  0  0     3.300    240  270  300  330
            2  1  0  0     3.300    241  271  301  331
            2  0  1  0     3.300    242  272  302  332
            1  2  0  0     3.300    243  273  303  333
            1  1  1  0     3.300    244  274  304  334
            1  0  2  0     3.300    245  275  305  335
            0  3  0  0     3.300    246  276  306  336
            0  2  1  0     3.300    247  277  307  337
            0  1  2  0     3.300    248  278  308  338
            0  0  3  0     3.300    249  279  309  339

 C                                    8    9   10   11   12   13   14   15   16   17   18   19   20   21   22
                                     23   24   25   26   27   28   29   30   31
                                  ---------------------------------------------------------------------------
            0  0  0  0     7.680    340  370  400  430  460  490  520  550  580  610  640  670  700  730  760
                                    790  820  850  880  910  940  970 1000 1030
            0  0  0  0     5.000    341  371  401  431  461  491  521  551  581  611  641  671  701  731  761
                                    791  821  851  881  911  941  971 1001 1031
            0  0  0  1     1.280    342  372  402  432  462  492  522  552  582  612  642  672  702  732  762
                                    792  822  852  882  912  942  972 1002 1032
            0  0  0  1     2.100    343  373  403  433  463  493  523  553  583  613  643  673  703  733  763
                                    793  823  853  883  913  943  973 1003 1033
            0  0  0  1     4.600    344  374  404  434  464  494  524  554  584  614  644  674  704  734  764
                                    794  824  854  884  914  944  974 1004 1034
            1  0  0  0     0.820    345  375  405  435  465  495  525  555  585  615  645  675  705  735  765
                                    795  825  855  885  915  945  975 1005 1035
            0  1  0  0     0.820    346  376  406  436  466  496  526  556  586  616  646  676  706  736  766
                                    796  826  856  886  916  946  976 1006 1036
            0  0  1  0     0.820    347  377  407  437  467  497  527  557  587  617  647  677  707  737  767
                                    797  827  857  887  917  947  977 1007 1037
            1  0  0  0     1.480    348  378  408  438  468  498  528  558  588  618  648  678  708  738  768
                                    798  828  858  888  918  948  978 1008 1038
            0  1  0  0     1.480    349  379  409  439  469  499  529  559  589  619  649  679  709  739  769
                                    799  829  859  889  919  949  979 1009 1039
            0  0  1  0     1.480    350  380  410  440  470  500  530  560  590  620  650  680  710  740  770
                                    800  830  860  890  920  950  980 1010 1040
            1  0  0  0     2.940    351  381  411  441  471  501  531  561  591  621  651  681  711  741  771
                                    801  831  861  891  921  951  981 1011 1041
            0  1  0  0     2.940    352  382  412  442  472  502  532  562  592  622  652  682  712  742  772
                                    802  832  862  892  922  952  982 1012 1042
            0  0  1  0     2.940    353  383  413  443  473  503  533  563  593  623  653  683  713  743  773
                                    803  833  863  893  923  953  983 1013 1043
            2  0  0  0     2.200    354  384  414  444  474  504  534  564  594  624  654  684  714  744  774
                                    804  834  864  894  924  954  984 1014 1044
            1  1  0  0     2.200    355  385  415  445  475  505  535  565  595  625  655  685  715  745  775
                                    805  835  865  895  925  955  985 1015 1045
            1  0  1  0     2.200    356  386  416  446  476  506  536  566  596  626  656  686  716  746  776
                                    806  836  866  896  926  956  986 1016 1046
            0  2  0  0     2.200    357  387  417  447  477  507  537  567  597  627  657  687  717  747  777
                                    807  837  867  897  927  957  987 1017 1047
            0  1  1  0     2.200    358  388  418  448  478  508  538  568  598  628  658  688  718  748  778
                                    808  838  868  898  928  958  988 1018 1048
            0  0  2  0     2.200    359  389  419  449  479  509  539  569  599  629  659  689  719  749  779
                                    809  839  869  899  929  959  989 1019 1049
            3  0  0  0     3.300    360  390  420  450  480  510  540  570  600  630  660  690  720  750  780
                                    810  840  870  900  930  960  990 1020 1050
            2  1  0  0     3.300    361  391  421  451  481  511  541  571  601  631  661  691  721  751  781
                                    811  841  871  901  931  961  991 1021 1051
            2  0  1  0     3.300    362  392  422  452  482  512  542  572  602  632  662  692  722  752  782
                                    812  842  872  902  932  962  992 1022 1052
            1  2  0  0     3.300    363  393  423  453  483  513  543  573  603  633  663  693  723  753  783
                                    813  843  873  903  933  963  993 1023 1053
            1  1  1  0     3.300    364  394  424  454  484  514  544  574  604  634  664  694  724  754  784
                                    814  844  874  904  934  964  994 1024 1054
            1  0  2  0     3.300    365  395  425  455  485  515  545  575  605  635  665  695  725  755  785
                                    815  845  875  905  935  965  995 1025 1055
            0  3  0  0     3.300    366  396  426  456  486  516  546  576  606  636  666  696  726  756  786
                                    816  846  876  906  936  966  996 1026 1056
            0  2  1  0     3.300    367  397  427  457  487  517  547  577  607  637  667  697  727  757  787
                                    817  847  877  907  937  967  997 1027 1057
            0  1  2  0     3.300    368  398  428  458  488  518  548  578  608  638  668  698  728  758  788
                                    818  848  878  908  938  968  998 1028 1058
            0  0  3  0     3.300    369  399  429  459  489  519  549  579  609  639  669  699  729  759  789
                                    819  849  879  909  939  969  999 1029 1059

 H                                   32   33   34   35   36   37   38   39   40   41   42   43   44   45   46
                                     47
                                  ---------------------------------------------------------------------------
            0  0  0  0     0.690   1060 1072 1084 1096 1108 1120 1132 1144 1156 1168 1180 1192 1204 1216 1228
                                   1240
            0  0  0  0     0.920   1061 1073 1085 1097 1109 1121 1133 1145 1157 1169 1181 1193 1205 1217 1229
                                   1241
            0  0  0  0     1.580   1062 1074 1086 1098 1110 1122 1134 1146 1158 1170 1182 1194 1206 1218 1230
                                   1242
            1  0  0  0     1.250   1063 1075 1087 1099 1111 1123 1135 1147 1159 1171 1183 1195 1207 1219 1231
                                   1243
            0  1  0  0     1.250   1064 1076 1088 1100 1112 1124 1136 1148 1160 1172 1184 1196 1208 1220 1232
                                   1244
            0  0  1  0     1.250   1065 1077 1089 1101 1113 1125 1137 1149 1161 1173 1185 1197 1209 1221 1233
                                   1245
            2  0  0  0     2.500   1066 1078 1090 1102 1114 1126 1138 1150 1162 1174 1186 1198 1210 1222 1234
                                   1246
            1  1  0  0     2.500   1067 1079 1091 1103 1115 1127 1139 1151 1163 1175 1187 1199 1211 1223 1235
                                   1247
            1  0  1  0     2.500   1068 1080 1092 1104 1116 1128 1140 1152 1164 1176 1188 1200 1212 1224 1236
                                   1248
            0  2  0  0     2.500   1069 1081 1093 1105 1117 1129 1141 1153 1165 1177 1189 1201 1213 1225 1237
                                   1249
            0  1  1  0     2.500   1070 1082 1094 1106 1118 1130 1142 1154 1166 1178 1190 1202 1214 1226 1238
                                   1250
            0  0  2  0     2.500   1071 1083 1095 1107 1119 1131 1143 1155 1167 1179 1191 1203 1215 1227 1239
                                   1251

 Cl                                  48   49
                                  ---------------------------------------------------------------------------
            0  0  0  0    20.300   1252 1290
            0  0  0  0    15.250   1253 1291
            0  0  0  1     6.250   1254 1292
            0  0  0  1     4.450   1255 1293
            1  0  0  0     8.850   1256 1294
            0  1  0  0     8.850   1257 1295
            0  0  1  0     8.850   1258 1296
            1  0  0  0     5.050   1259 1297
            0  1  0  0     5.050   1260 1298
            0  0  1  0     5.050   1261 1299
            0  0  0  2     3.450   1262 1300
            0  0  0  2     2.300   1263 1301
            0  0  0  2     1.600   1264 1302
            1  0  0  1     3.350   1265 1303
            0  1  0  1     3.350   1266 1304
            0  0  1  1     3.350   1267 1305
            1  0  0  1     2.050   1268 1306
            0  1  0  1     2.050   1269 1307
            0  0  1  1     2.050   1270 1308
            1  0  0  1     1.200   1271 1309
            0  1  0  1     1.200   1272 1310
            0  0  1  1     1.200   1273 1311
            2  0  0  0     2.000   1274 1312
            1  1  0  0     2.000   1275 1313
            1  0  1  0     2.000   1276 1314
            0  2  0  0     2.000   1277 1315
            0  1  1  0     2.000   1278 1316
            0  0  2  0     2.000   1279 1317
            3  0  0  0     2.000   1280 1318
            2  1  0  0     2.000   1281 1319
            2  0  1  0     2.000   1282 1320
            1  2  0  0     2.000   1283 1321
            1  1  1  0     2.000   1284 1322
            1  0  2  0     2.000   1285 1323
            0  3  0  0     2.000   1286 1324
            0  2  1  0     2.000   1287 1325
            0  1  2  0     2.000   1288 1326
            0  0  3  0     2.000   1289 1327

 Total number of charge fitting functions (nprimf)      3929
 Total number of Cartesian basis functions (naos)       1327
 Total number of Cartesian core functions  (ncos)          0

1
 ***************************************************************************************************



                                              ***********************
                                              *  T E C H N I C A L  *
                                              ***********************
  



 =============================================================
 P A R A L L E L I Z A T I O N  and  V E C T O R I Z A T I O N
 =============================================================
  
 Nr of parallel processes:                               24
 Maximum vector length in NumInt loops:                 128



 =====================
 S C F   U P D A T E S
 =====================
  
 Max. nr. of cycles:                               300
 Convergence criterion:                              0.0000010000
   secondary criterion:                              0.0010000000

 Mix parameter (when DIIS does not apply):           0.2000000000
 Mixed ADIIS+SDIIS will be used                  
    Max number of expansion vectors:                10
    Pure ADIIS when Max([F,P]) is above              0.1000000000
    Pure SDIIS when Max([F,P]) is below              0.0010000000
 Automatic ElectronSmearing (in case of problematic SCF convergence) disabled



 =================
 P R E C I S I O N  ***  (General: NumInt, NeglectFunctionTails, ...)  ***
 =================
  

 NumInt:           Target precision:                 4.0000000000
 -------           Initial precision:                4.0000000000
                   Min. precision (optimization):    4.0000000000

 Neglect Functions:          Basis functions:        0.1000000000E-13
 ------------------          Fit functions:          0.1000000000E-13



 ===========================
 L I N E A R   S C A L I N G
 ===========================
  

 Cut-off radii density fit:                        0.1000000000E-07
 Overlap cut-off criterion AO matrix elements:     0.1000000000E-05
 Cut-offs for Coulomb potential and fitted density:0.1000000000E-07
 Cut-off criterion for Coulomb multipole terms:    0.1000000000E-07
 Progressive Convergence parameter:                 0.000000000    
1
 ***************************************************************************************************



                                            ***************************
                                            *  C O M P U T A T I O N  *
                                            ***************************
  



 ==============================
 Double group spinor symmetries  ***  (Spin-Orbit)  ***
 ==============================
  

 The double group Lowdins are spinors adapted to the irreducible representations
 of the double group. These double group Lowdins are linear combinations of
 products of the single group Lowdins and the spinfunctions. The single group
 Lowdins are  orthonormalized symmetrized fragment orbitals (SFOs).
 The complex coefficients that are used in the linear combinations are also
 known as Clebsch-Gordan coefficients.
 The spin functions (alpha,beta) span irrep e1/2


          A * e 1/2 :      A1/2

  A1/2:1 = A.alpha
  A1/2:1 = A.beta

 The table summarizes which one-electron orbital irreps (single group) couple
 with spin to which spinor irreps (double group).
 The Clebsch-Gordan series for each direct product: orbital irrep times e1/2.
                  A
            -------
  A1/2           X


 dimension (equal to the max. nr. of electrons per spinor) of the double group irreps
 ------------------------------------------------------------------------------------
  A1/2           1

 Number of elements of the density matrix on this node (used, total):     35430    881128



 ===========================================
 Numerical Integration : Fuzzy Cells (Becke)
 ===========================================
  
 Becke grid quality: NORMAL         
  
 Lebedev angular grid order:             min:  11 max:  31
 Nr. of radial points:                   min:  46 max: 175

 Total nr. of points:     356617
 Nr. of blocks:             2787
 Block length:               128
 Nr. of dummy points:        119


 Test of Precision of the Numerical Integration Grid
 ===================================================

 Integral of the Total Core Density:                   0.00000000000000



 ========================
 Density Fitting (zlmFit)
 ========================
  
 ZlmFit Fit Quality: NORMAL         
  
 Max L-expansion:                        min:   6 max:   8
 Nr. of radial interpolation points:     min:  39 max: 150



 ======================
 RI Hartree-Fock Scheme
 ======================
  
 Fit Set Quality     : NORMAL
 Integration Quality : NORMAL
 Threshold Quality   : NORMAL
 Response Quality    : DEFAULT
 Is Range Separated  :  T
 Type of Range Separation : 
 Long-Range: Erf potential                                                      
                                                                                
   
 Asymptotic Coulomb       :   0.650000000000000     
 
 RIHartreeFock Dependency: number of modified vectors:          54



 =====
 S C F  ***  ScaSCF  ***
 =====
  
 Initial density matrix is taken from previous geometry

 CYCLE    1
 SCF Error: norm([F,P])=   1655.912588249076, max([F,P])=    348.091406535505
 orbitals (Q,E):
 ---------------
 A1/2 :321...340     ( 1.00    -0.2899)  ( 1.00    -0.2899)  ( 1.00    -0.2857)  ( 1.00    -0.2857)
                     ( 1.00    -0.2845)  ( 1.00    -0.2845)  ( 1.00    -0.2823)  ( 1.00    -0.2823)
                     ( 1.00    -0.2796)  ( 1.00    -0.2796)  ( 0.00    -0.0467)  ( 0.00    -0.0467)
                     ( 0.00    -0.0449)  ( 0.00    -0.0449)  ( 0.00    -0.0246)  ( 0.00    -0.0246)
                     ( 0.00    -0.0231)  ( 0.00    -0.0231)  ( 0.00    -0.0131)  ( 0.00    -0.0131)

 CYCLE    2
   MIX coefficients:  0.8000  0.2000
 SCF Error: norm([F,P])=      0.989186685984, max([F,P])=      0.186867189523
 orbitals (Q,E):
 ---------------
 A1/2 :321...340     ( 1.00    -0.2987)  ( 1.00    -0.2987)  ( 1.00    -0.2947)  ( 1.00    -0.2947)
                     ( 1.00    -0.2912)  ( 1.00    -0.2912)  ( 1.00    -0.2896)  ( 1.00    -0.2896)
                     ( 1.00    -0.2882)  ( 1.00    -0.2882)  ( 0.00    -0.0484)  ( 0.00    -0.0484)
                     ( 0.00    -0.0448)  ( 0.00    -0.0448)  ( 0.00    -0.0300)  ( 0.00    -0.0300)
                     ( 0.00    -0.0253)  ( 0.00    -0.0253)  ( 0.00    -0.0203)  ( 0.00    -0.0203)

 CYCLE    3
  SDIIS (wt  0.000): -2.0000  3.0000
 A-DIIS (wt  1.000):  0.0000  1.0000
  DIIS coefficients:  0.0000  1.0000
 SCF Error: norm([F,P])=      0.789083429596, max([F,P])=      0.149603484689
 orbitals (Q,E):
 ---------------
 A1/2 :321...340     ( 1.00    -0.3209)  ( 1.00    -0.3209)  ( 1.00    -0.3185)  ( 1.00    -0.3185)
                     ( 1.00    -0.3148)  ( 1.00    -0.3148)  ( 1.00    -0.3136)  ( 1.00    -0.3136)
                     ( 1.00    -0.3001)  ( 1.00    -0.3001)  ( 0.00    -0.0530)  ( 0.00    -0.0530)
                     ( 0.00    -0.0502)  ( 0.00    -0.0502)  ( 0.00    -0.0456)  ( 0.00    -0.0456)
                     ( 0.00    -0.0396)  ( 0.00    -0.0396)  ( 0.00    -0.0378)  ( 0.00    -0.0378)

 CYCLE    4
  SDIIS (wt  0.938):  1.6055 -2.0000  1.3945
 A-DIIS (wt  0.062):  0.0000  0.4243  0.5757
  DIIS coefficients:  1.5061 -1.8500  1.3439
 SCF Error: norm([F,P])=      0.084590684023, max([F,P])=      0.007124633667
 orbitals (Q,E):
 ---------------
 A1/2 :321...340     ( 1.00    -0.3110)  ( 1.00    -0.3110)  ( 1.00    -0.3075)  ( 1.00    -0.3075)
                     ( 1.00    -0.3041)  ( 1.00    -0.3041)  ( 1.00    -0.3024)  ( 1.00    -0.3024)
                     ( 1.00    -0.2940)  ( 1.00    -0.2940)  ( 0.00    -0.0481)  ( 0.00    -0.0481)
                     ( 0.00    -0.0447)  ( 0.00    -0.0447)  ( 0.00    -0.0369)  ( 0.00    -0.0369)
                     ( 0.00    -0.0290)  ( 0.00    -0.0290)  ( 0.00    -0.0270)  ( 0.00    -0.0270)

 CYCLE    5
  SDIIS (wt  0.950): -0.4392  0.5472  0.2782  0.6138
 A-DIIS (wt  0.050):  0.0000  0.0000  0.4196  0.5804
  DIIS coefficients: -0.4173  0.5199  0.2853  0.6121
 SCF Error: norm([F,P])=      0.071649016802, max([F,P])=      0.005938564933
 orbitals (Q,E):
 ---------------
 A1/2 :321...340     ( 1.00    -0.3141)  ( 1.00    -0.3141)  ( 1.00    -0.3128)  ( 1.00    -0.3128)
                     ( 1.00    -0.3086)  ( 1.00    -0.3086)  ( 1.00    -0.3072)  ( 1.00    -0.3072)
                     ( 1.00    -0.2963)  ( 1.00    -0.2963)  ( 0.00    -0.0500)  ( 0.00    -0.0500)
                     ( 0.00    -0.0447)  ( 0.00    -0.0447)  ( 0.00    -0.0407)  ( 0.00    -0.0407)
                     ( 0.00    -0.0312)  ( 0.00    -0.0312)  ( 0.00    -0.0303)  ( 0.00    -0.0303)

 CYCLE    6
  SDIIS (wt  0.997): -0.6969  0.8701 -0.0026  0.4523  0.3770
 A-DIIS (wt  0.003):  0.0000  0.0000  0.0000  0.0000  1.0000
  DIIS coefficients: -0.6948  0.8675 -0.0026  0.4510  0.3788
 SCF Error: norm([F,P])=      0.011130310413, max([F,P])=      0.001288501739
 orbitals (Q,E):
 ---------------
 A1/2 :321...340     ( 1.00    -0.3145)  ( 1.00    -0.3145)  ( 1.00    -0.3133)  ( 1.00    -0.3133)
                     ( 1.00    -0.3090)  ( 1.00    -0.3090)  ( 1.00    -0.3078)  ( 1.00    -0.3078)
                     ( 1.00    -0.2966)  ( 1.00    -0.2966)  ( 0.00    -0.0500)  ( 0.00    -0.0500)
                     ( 0.00    -0.0448)  ( 0.00    -0.0448)  ( 0.00    -0.0422)  ( 0.00    -0.0422)
                     ( 0.00    -0.0322)  ( 0.00    -0.0322)  ( 0.00    -0.0312)  ( 0.00    -0.0312)

 CYCLE    7
  SDIIS (wt  1.000): -0.2685  0.3355 -0.0794  0.0790  0.2644  0.6689
  DIIS coefficients: -0.2685  0.3355 -0.0794  0.0790  0.2644  0.6689
 SCF Error: norm([F,P])=      0.003993363095, max([F,P])=      0.000422617093
 orbitals (Q,E):
 ---------------
 A1/2 :321...340     ( 1.00    -0.3146)  ( 1.00    -0.3146)  ( 1.00    -0.3134)  ( 1.00    -0.3134)
                     ( 1.00    -0.3092)  ( 1.00    -0.3092)  ( 1.00    -0.3080)  ( 1.00    -0.3080)
                     ( 1.00    -0.2967)  ( 1.00    -0.2967)  ( 0.00    -0.0501)  ( 0.00    -0.0501)
                     ( 0.00    -0.0448)  ( 0.00    -0.0448)  ( 0.00    -0.0420)  ( 0.00    -0.0420)
                     ( 0.00    -0.0321)  ( 0.00    -0.0321)  ( 0.00    -0.0311)  ( 0.00    -0.0311)

 CYCLE    8
  SDIIS (wt  1.000):  0.0476 -0.0593 -0.0291 -0.0665  0.0497  0.2714  0.7862
  DIIS coefficients:  0.0476 -0.0593 -0.0291 -0.0665  0.0497  0.2714  0.7862
 SCF Error: norm([F,P])=      0.001276697694, max([F,P])=      0.000121845719
 orbitals (Q,E):
 ---------------
 A1/2 :321...340     ( 1.00    -0.3145)  ( 1.00    -0.3145)  ( 1.00    -0.3134)  ( 1.00    -0.3134)
                     ( 1.00    -0.3091)  ( 1.00    -0.3091)  ( 1.00    -0.3079)  ( 1.00    -0.3079)
                     ( 1.00    -0.2966)  ( 1.00    -0.2966)  ( 0.00    -0.0501)  ( 0.00    -0.0501)
                     ( 0.00    -0.0448)  ( 0.00    -0.0448)  ( 0.00    -0.0420)  ( 0.00    -0.0420)
                     ( 0.00    -0.0321)  ( 0.00    -0.0321)  ( 0.00    -0.0311)  ( 0.00    -0.0311)

 CYCLE    9
  SDIIS (wt  1.000):  0.0826 -0.1032  0.0063 -0.0460 -0.0284 -0.0553  0.3270  0.8169
  DIIS coefficients:  0.0826 -0.1032  0.0063 -0.0460 -0.0284 -0.0553  0.3270  0.8169
 SCF Error: norm([F,P])=      0.000676003616, max([F,P])=      0.000063521864
 orbitals (Q,E):
 ---------------
 A1/2 :321...340     ( 1.00    -0.3145)  ( 1.00    -0.3145)  ( 1.00    -0.3134)  ( 1.00    -0.3134)
                     ( 1.00    -0.3091)  ( 1.00    -0.3091)  ( 1.00    -0.3079)  ( 1.00    -0.3079)
                     ( 1.00    -0.2966)  ( 1.00    -0.2966)  ( 0.00    -0.0500)  ( 0.00    -0.0500)
                     ( 0.00    -0.0448)  ( 0.00    -0.0448)  ( 0.00    -0.0420)  ( 0.00    -0.0420)
                     ( 0.00    -0.0321)  ( 0.00    -0.0321)  ( 0.00    -0.0311)  ( 0.00    -0.0311)

 CYCLE   10
  SDIIS (wt  1.000):  0.0302 -0.0377  0.0099 -0.0073 -0.0304 -0.1010 -0.0305  0.4517  0.7151
  DIIS coefficients:  0.0302 -0.0377  0.0099 -0.0073 -0.0304 -0.1010 -0.0305  0.4517  0.7151
 SCF Error: norm([F,P])=      0.000376149712, max([F,P])=      0.000032747457
 orbitals (Q,E):
 ---------------
 A1/2 :321...340     ( 1.00    -0.3145)  ( 1.00    -0.3145)  ( 1.00    -0.3134)  ( 1.00    -0.3134)
                     ( 1.00    -0.3091)  ( 1.00    -0.3091)  ( 1.00    -0.3079)  ( 1.00    -0.3079)
                     ( 1.00    -0.2966)  ( 1.00    -0.2966)  ( 0.00    -0.0500)  ( 0.00    -0.0500)
                     ( 0.00    -0.0448)  ( 0.00    -0.0448)  ( 0.00    -0.0420)  ( 0.00    -0.0420)
                     ( 0.00    -0.0321)  ( 0.00    -0.0321)  ( 0.00    -0.0311)  ( 0.00    -0.0311)

 CYCLE   11
  SDIIS (wt  1.000): -0.0064  0.0080  0.0022  0.0069 -0.0102 -0.0324 -0.0825  0.0360  0.3144  0.7641
  DIIS coefficients: -0.0064  0.0080  0.0022  0.0069 -0.0102 -0.0324 -0.0825  0.0360  0.3144  0.7641
 SCF Error: norm([F,P])=      0.000152985722, max([F,P])=      0.000011650897
 orbitals (Q,E):
 ---------------
 A1/2 :321...340     ( 1.00    -0.3145)  ( 1.00    -0.3145)  ( 1.00    -0.3134)  ( 1.00    -0.3134)
                     ( 1.00    -0.3091)  ( 1.00    -0.3091)  ( 1.00    -0.3079)  ( 1.00    -0.3079)
                     ( 1.00    -0.2966)  ( 1.00    -0.2966)  ( 0.00    -0.0500)  ( 0.00    -0.0500)
                     ( 0.00    -0.0448)  ( 0.00    -0.0448)  ( 0.00    -0.0420)  ( 0.00    -0.0420)
                     ( 0.00    -0.0321)  ( 0.00    -0.0321)  ( 0.00    -0.0311)  ( 0.00    -0.0311)

 CYCLE   12
  SDIIS (wt  1.000): -0.0000  0.0012  0.0014 -0.0018 -0.0049 -0.0221 -0.0276  0.0370  0.3008  0.7160
  DIIS coefficients: -0.0000  0.0012  0.0014 -0.0018 -0.0049 -0.0221 -0.0276  0.0370  0.3008  0.7160
 SCF Error: norm([F,P])=      0.000064744771, max([F,P])=      0.000006507432
 orbitals (Q,E):
 ---------------
 A1/2 :321...340     ( 1.00    -0.3145)  ( 1.00    -0.3145)  ( 1.00    -0.3134)  ( 1.00    -0.3134)
                     ( 1.00    -0.3091)  ( 1.00    -0.3091)  ( 1.00    -0.3079)  ( 1.00    -0.3079)
                     ( 1.00    -0.2966)  ( 1.00    -0.2966)  ( 0.00    -0.0500)  ( 0.00    -0.0500)
                     ( 0.00    -0.0448)  ( 0.00    -0.0448)  ( 0.00    -0.0420)  ( 0.00    -0.0420)
                     ( 0.00    -0.0321)  ( 0.00    -0.0321)  ( 0.00    -0.0311)  ( 0.00    -0.0311)

 CYCLE   13
  SDIIS (wt  1.000): -0.0000 -0.0000  0.0035  0.0093  0.0058 -0.0404 -0.0710 -0.0393  0.3711  0.7610
  DIIS coefficients: -0.0000 -0.0000  0.0035  0.0093  0.0058 -0.0404 -0.0710 -0.0393  0.3711  0.7610
 SCF Error: norm([F,P])=      0.000037213288, max([F,P])=      0.000004214654
 orbitals (Q,E):
 ---------------
 A1/2 :321...340     ( 1.00    -0.3145)  ( 1.00    -0.3145)  ( 1.00    -0.3134)  ( 1.00    -0.3134)
                     ( 1.00    -0.3091)  ( 1.00    -0.3091)  ( 1.00    -0.3079)  ( 1.00    -0.3079)
                     ( 1.00    -0.2966)  ( 1.00    -0.2966)  ( 0.00    -0.0500)  ( 0.00    -0.0500)
                     ( 0.00    -0.0448)  ( 0.00    -0.0448)  ( 0.00    -0.0420)  ( 0.00    -0.0420)
                     ( 0.00    -0.0321)  ( 0.00    -0.0321)  ( 0.00    -0.0311)  ( 0.00    -0.0311)

 CYCLE   14
  SDIIS (wt  1.000):  0.0000  0.0012  0.0043  0.0041 -0.0117 -0.0317 -0.0600  0.0454  0.3241  0.7242
  DIIS coefficients:  0.0000  0.0012  0.0043  0.0041 -0.0117 -0.0317 -0.0600  0.0454  0.3241  0.7242
 SCF Error: norm([F,P])=      0.000017134148, max([F,P])=      0.000002372267
 orbitals (Q,E):
 ---------------
 A1/2 :321...340     ( 1.00    -0.3145)  ( 1.00    -0.3145)  ( 1.00    -0.3134)  ( 1.00    -0.3134)
                     ( 1.00    -0.3091)  ( 1.00    -0.3091)  ( 1.00    -0.3079)  ( 1.00    -0.3079)
                     ( 1.00    -0.2966)  ( 1.00    -0.2966)  ( 0.00    -0.0500)  ( 0.00    -0.0500)
                     ( 0.00    -0.0448)  ( 0.00    -0.0448)  ( 0.00    -0.0420)  ( 0.00    -0.0420)
                     ( 0.00    -0.0321)  ( 0.00    -0.0321)  ( 0.00    -0.0311)  ( 0.00    -0.0311)

 CYCLE   15
  SDIIS (wt  1.000): -0.0003 -0.0001  0.0008  0.0045  0.0012 -0.0231 -0.0715 -0.0274  0.3888  0.7271
  DIIS coefficients: -0.0003 -0.0001  0.0008  0.0045  0.0012 -0.0231 -0.0715 -0.0274  0.3888  0.7271
 SCF Error: norm([F,P])=      0.000009439642, max([F,P])=      0.000001529026
 orbitals (Q,E):
 ---------------
 A1/2 :321...340     ( 1.00    -0.3145)  ( 1.00    -0.3145)  ( 1.00    -0.3134)  ( 1.00    -0.3134)
                     ( 1.00    -0.3091)  ( 1.00    -0.3091)  ( 1.00    -0.3079)  ( 1.00    -0.3079)
                     ( 1.00    -0.2966)  ( 1.00    -0.2966)  ( 0.00    -0.0500)  ( 0.00    -0.0500)
                     ( 0.00    -0.0448)  ( 0.00    -0.0448)  ( 0.00    -0.0420)  ( 0.00    -0.0420)
                     ( 0.00    -0.0321)  ( 0.00    -0.0321)  ( 0.00    -0.0311)  ( 0.00    -0.0311)

 CYCLE   16
  SDIIS (wt  1.000): -0.0003  0.0003  0.0031  0.0026 -0.0089 -0.0434 -0.0580  0.0562  0.4473  0.6012
  DIIS coefficients: -0.0003  0.0003  0.0031  0.0026 -0.0089 -0.0434 -0.0580  0.0562  0.4473  0.6012
 SCF Error: norm([F,P])=      0.000007196439, max([F,P])=      0.000000938546
 orbitals (Q,E):
 ---------------
 A1/2 :321...340     ( 1.00    -0.3145)  ( 1.00    -0.3145)  ( 1.00    -0.3134)  ( 1.00    -0.3134)
                     ( 1.00    -0.3091)  ( 1.00    -0.3091)  ( 1.00    -0.3079)  ( 1.00    -0.3079)
                     ( 1.00    -0.2966)  ( 1.00    -0.2966)  ( 0.00    -0.0500)  ( 0.00    -0.0500)
                     ( 0.00    -0.0448)  ( 0.00    -0.0448)  ( 0.00    -0.0420)  ( 0.00    -0.0420)
                     ( 0.00    -0.0321)  ( 0.00    -0.0321)  ( 0.00    -0.0311)  ( 0.00    -0.0311)

 SCF CONVERGED

 CYCLE   17
1
 ***************************************************************************************************



                                                *******************
                                                *  R E S U L T S  *
                                                *******************
  
  
 Hartree-Fock exchange energy:   -160.170309806132     
 *** Using EXACT density in Focky


 *** Use of untested dispersion parameters detected in GrimmeDispersion ***


  SDIIS (wt  1.000): -0.0006 -0.0005  0.0033  0.0086 -0.0171 -0.0532 -0.0414  0.0983  0.2929  0.7098
  DIIS coefficients: -0.0006 -0.0005  0.0033  0.0086 -0.0171 -0.0532 -0.0414  0.0983  0.2929  0.7098
 SCF Error: norm([F,P])=      0.000003907261, max([F,P])=      0.000000618518

 Scaled ZORA Orbital Energies, per Irrep and Spin:
 =================================================
                        Occup              E (au)              E (eV)       Diff (eV) with prev. cycle
                        -----      --------------------        ------       --------------------------
 A1/2
             321        1.000     -0.31451497349074E+00        -8.558               9.87E-07
             322        1.000     -0.31451497349010E+00        -8.558               9.87E-07
             323        1.000     -0.31335982047728E+00        -8.527               2.76E-06
             324        1.000     -0.31335982047578E+00        -8.527               2.76E-06
             325        1.000     -0.30910691350209E+00        -8.411               1.71E-06
             326        1.000     -0.30910691350054E+00        -8.411               1.71E-06
             327        1.000     -0.30792162310221E+00        -8.379               2.05E-06
             328        1.000     -0.30792162310185E+00        -8.379               2.05E-06
             329        1.000     -0.29659609550466E+00        -8.071               1.85E-06
             330        1.000     -0.29659609550443E+00        -8.071               1.85E-06
             331        0.000     -0.50045684447396E-01        -1.362
             332        0.000     -0.50045684446496E-01        -1.362
             333        0.000     -0.44809054020678E-01        -1.219
             334        0.000     -0.44809054020193E-01        -1.219
             335        0.000     -0.41991250137426E-01        -1.143
             336        0.000     -0.41991250137040E-01        -1.143
             337        0.000     -0.32068568371228E-01        -0.873
             338        0.000     -0.32068568370689E-01        -0.873
             339        0.000     -0.31064089639459E-01        -0.845
             340        0.000     -0.31064089638834E-01        -0.845
  
 HOMO :      330 A1/2             -0.29659609550443E+00
 LUMO :      331 A1/2             -0.50045684447396E-01
  


 All Electron Calculation, thus no Orbital Energies of the Core Orbitals are calculated


 Fit test: (difference of exact and fit density, squared integrated, result summed over spins)
         Sum-of-Fragments:                             0.00000785887362
         Orthogonalized Fragments:                     0.00348532215829
         SCF:                                          0.00413755012013



 ==========================
 Electron Density at Nuclei
 ==========================
  
 The electron density is calculated at points on a small sphere around the center of a nucleus.
 The printed electron density is the average electron density on these points.
 The radius of the sphere is the printed approximate finite nuclear radius.
 Note: ZORA-4 density is used, which includes small component density

         Atom        Nuclear Radius (Angstrom)             Electron Density (a.u.)
         ----        -------------------------             -----------------------
     1)   U                 0.0000742428                          4173010.78201
     2)   O                 0.0000345546                              313.81053
     3)   O                 0.0000345546                              313.81058
     4)   N                 0.0000333706                              205.70859
     5)   C                 0.0000320678                              126.82429
     6)   H                 0.0000181514                                0.48847
     7)   C                 0.0000320678                              126.75772
     8)   H                 0.0000181514                                0.49489
     9)   C                 0.0000320678                              126.79627
    10)   H                 0.0000181514                                0.49553
    11)   C                 0.0000320678                              126.74255
    12)   C                 0.0000320678                              126.75862
    13)   H                 0.0000181514                                0.49566
    14)   C                 0.0000320678                              126.75897
    15)   H                 0.0000181514                                0.49563
    16)   C                 0.0000320678                              126.74237
    17)   C                 0.0000320678                              126.79635
    18)   H                 0.0000181514                                0.49552
    19)   C                 0.0000320678                              126.75755
    20)   H                 0.0000181514                                0.49490
    21)   C                 0.0000320678                              126.82411
    22)   H                 0.0000181514                                0.48848
    23)   N                 0.0000333706                              205.70897
    24)   C                 0.0000320678                              126.74614
    25)   C                 0.0000320678                              126.74602
    26)   Cl                0.0000426624                             3311.24828
    27)   Cl                0.0000426624                             3311.24815
    28)   N                 0.0000333706                              205.76012
    29)   C                 0.0000320678                              126.80431
    30)   H                 0.0000181514                                0.49658
    31)   C                 0.0000320678                              126.75558
    32)   H                 0.0000181514                                0.49568
    33)   C                 0.0000320678                              126.79162
    34)   H                 0.0000181514                                0.49594
    35)   C                 0.0000320678                              126.74261
    36)   C                 0.0000320678                              126.75690
    37)   H                 0.0000181514                                0.49607
    38)   C                 0.0000320678                              126.75634
    39)   H                 0.0000181514                                0.49611
    40)   C                 0.0000320678                              126.74225
    41)   C                 0.0000320678                              126.79118
    42)   H                 0.0000181514                                0.49598
    43)   C                 0.0000320678                              126.75581
    44)   H                 0.0000181514                                0.49569
    45)   C                 0.0000320678                              126.80452
    46)   H                 0.0000181514                                0.49660
    47)   N                 0.0000333706                              205.75996
    48)   C                 0.0000320678                              126.74975
    49)   C                 0.0000320678                              126.74946



 =======================================
 M U L L I K E N   P O P U L A T I O N S
 =======================================
  
 The survey below gives for each atom:
 a) the total charge (Z minus electrons)
 b) the net spin polarization (nr of electrons spin-A minus spin-B)
 c) for each spin the atomic electron valence density (integrated) per L-value.

 Atom              Charge    Spin density          S         P         D         F
 ----              ------    ------------       ------    ------    ------    ------
 1 U               2.0071                      12.0767   29.7620   31.6494   16.5047
 2 O              -0.6665                       3.8949    4.7188    0.0475    0.0053
 3 O              -0.6665                       3.8949    4.7188    0.0475    0.0053
 4 N              -0.4660                       3.5234    3.8667    0.0700    0.0058
 5 C               0.4399                       3.0134    2.4552    0.0850    0.0065
 6 H              -0.1377                       1.0395    0.0927    0.0054    0.0000
 7 C               0.1633                       3.0646    2.7066    0.0604    0.0051
 8 H              -0.1905                       1.1174    0.0682    0.0049    0.0000
 9 C               0.2609                       3.0512    2.6190    0.0639    0.0051
 10 H             -0.1940                       1.1189    0.0700    0.0051    0.0000
 11 C             -0.0013                       3.0906    2.8240    0.0803    0.0064
 12 C              0.2143                       3.0453    2.6724    0.0629    0.0050
 13 H             -0.1980                       1.1211    0.0717    0.0052    0.0000
 14 C              0.2144                       3.0454    2.6723    0.0629    0.0050
 15 H             -0.1981                       1.1212    0.0717    0.0052    0.0000
 16 C             -0.0013                       3.0906    2.8240    0.0803    0.0064
 17 C              0.2609                       3.0512    2.6190    0.0639    0.0051
 18 H             -0.1940                       1.1189    0.0700    0.0051    0.0000
 19 C              0.1632                       3.0647    2.7066    0.0604    0.0051
 20 H             -0.1905                       1.1174    0.0682    0.0049    0.0000
 21 C              0.4399                       3.0133    2.4552    0.0850    0.0065
 22 H             -0.1376                       1.0395    0.0927    0.0054    0.0000
 23 N             -0.4660                       3.5235    3.8667    0.0700    0.0058
 24 C              0.1802                       3.0652    2.6468    0.1002    0.0077
 25 C              0.1801                       3.0652    2.6469    0.1002    0.0077
 26 Cl            -0.4987                       5.9654   11.5136    0.0155    0.0042
 27 Cl            -0.4987                       5.9654   11.5136    0.0155    0.0042
 28 N             -0.4194                       3.5197    3.8218    0.0720    0.0059
 29 C              0.4452                       3.0060    2.4562    0.0859    0.0066
 30 H             -0.1553                       1.0728    0.0771    0.0054    0.0000
 31 C              0.1635                       3.0622    2.7085    0.0607    0.0051
 32 H             -0.1964                       1.1227    0.0687    0.0050    0.0000
 33 C              0.2581                       3.0498    2.6233    0.0637    0.0051
 34 H             -0.2000                       1.1245    0.0704    0.0051    0.0000
 35 C             -0.0009                       3.0903    2.8239    0.0804    0.0064
 36 C              0.2123                       3.0457    2.6740    0.0629    0.0050
 37 H             -0.2030                       1.1260    0.0718    0.0052    0.0000
 38 C              0.2122                       3.0457    2.6741    0.0629    0.0050
 39 H             -0.2029                       1.1259    0.0718    0.0052    0.0000
[...]
     1: 300 a1/2   -> 337 a1/2      0.0223
     1: 299 a1/2   -> 338 a1/2      0.0223
     1: 312 a1/2   -> 337 a1/2      0.0176
     1: 311 a1/2   -> 338 a1/2      0.0176
     1: 316 a1/2   -> 335 a1/2      0.0144
     1: 315 a1/2   -> 336 a1/2      0.0144
     1: 320 a1/2   -> 338 a1/2      0.0089
     1: 319 a1/2   -> 337 a1/2      0.0089
     1: 321 a1/2   -> 335 a1/2      0.0083
     1: 322 a1/2   -> 336 a1/2      0.0083


     2: 328 a1/2   -> 335 a1/2      0.1074
     2: 327 a1/2   -> 336 a1/2      0.1074
     2: 299 a1/2   -> 335 a1/2      0.0756
     2: 300 a1/2   -> 336 a1/2      0.0756
     2: 311 a1/2   -> 335 a1/2      0.0645
     2: 312 a1/2   -> 336 a1/2      0.0645
     2: 320 a1/2   -> 335 a1/2      0.0364
     2: 319 a1/2   -> 336 a1/2      0.0364
     2: 327 a1/2   -> 340 a1/2      0.0339
     2: 328 a1/2   -> 339 a1/2      0.0339
     2: 300 a1/2   -> 340 a1/2      0.0291
     2: 299 a1/2   -> 339 a1/2      0.0290
     2: 312 a1/2   -> 340 a1/2      0.0232
     2: 311 a1/2   -> 339 a1/2      0.0232
     2: 315 a1/2   -> 336 a1/2      0.0148
     2: 316 a1/2   -> 335 a1/2      0.0148
     2: 319 a1/2   -> 340 a1/2      0.0115
     2: 320 a1/2   -> 339 a1/2      0.0115
     2: 322 a1/2   -> 336 a1/2      0.0101
     2: 321 a1/2   -> 335 a1/2      0.0101


     3: 328 a1/2   -> 337 a1/2      0.0705
     3: 327 a1/2   -> 338 a1/2      0.0705
     3: 299 a1/2   -> 337 a1/2      0.0559
     3: 300 a1/2   -> 338 a1/2      0.0559
     3: 312 a1/2   -> 338 a1/2      0.0450
     3: 311 a1/2   -> 337 a1/2      0.0450
     3: 328 a1/2   -> 341 a1/2      0.0296
     3: 327 a1/2   -> 342 a1/2      0.0296
     3: 319 a1/2   -> 338 a1/2      0.0244
     3: 320 a1/2   -> 337 a1/2      0.0244
     3: 299 a1/2   -> 341 a1/2      0.0221
     3: 300 a1/2   -> 342 a1/2      0.0221
     3: 311 a1/2   -> 341 a1/2      0.0169
     3: 312 a1/2   -> 342 a1/2      0.0169
     3: 300 a1/2   -> 341 a1/2      0.0156
     3: 299 a1/2   -> 342 a1/2      0.0156
     3: 312 a1/2   -> 341 a1/2      0.0153
     3: 311 a1/2   -> 342 a1/2      0.0153
     3: 327 a1/2   -> 341 a1/2      0.0126
     3: 328 a1/2   -> 342 a1/2      0.0126


     4: 327 a1/2   -> 338 a1/2      0.0692
     4: 328 a1/2   -> 337 a1/2      0.0691
     4: 300 a1/2   -> 338 a1/2      0.0596
     4: 299 a1/2   -> 337 a1/2      0.0596
     4: 312 a1/2   -> 338 a1/2      0.0506
     4: 311 a1/2   -> 337 a1/2      0.0506
     4: 327 a1/2   -> 342 a1/2      0.0368
     4: 328 a1/2   -> 341 a1/2      0.0368
     4: 300 a1/2   -> 342 a1/2      0.0357
     4: 299 a1/2   -> 341 a1/2      0.0357
     4: 312 a1/2   -> 342 a1/2      0.0307
     4: 311 a1/2   -> 341 a1/2      0.0307
     4: 319 a1/2   -> 338 a1/2      0.0232
     4: 320 a1/2   -> 337 a1/2      0.0231
     4: 327 a1/2   -> 339 a1/2      0.0153
     4: 328 a1/2   -> 340 a1/2      0.0153
     4: 320 a1/2   -> 341 a1/2      0.0125
     4: 319 a1/2   -> 342 a1/2      0.0125
     4: 299 a1/2   -> 340 a1/2      0.0122
     4: 300 a1/2   -> 339 a1/2      0.0122


     5: 328 a1/2   -> 336 a1/2      0.0904
     5: 327 a1/2   -> 335 a1/2      0.0904
     5: 299 a1/2   -> 336 a1/2      0.0591
     5: 300 a1/2   -> 335 a1/2      0.0591
     5: 311 a1/2   -> 336 a1/2      0.0529
     5: 312 a1/2   -> 335 a1/2      0.0529
     5: 327 a1/2   -> 339 a1/2      0.0464
     5: 328 a1/2   -> 340 a1/2      0.0464
     5: 299 a1/2   -> 340 a1/2      0.0355
     5: 300 a1/2   -> 339 a1/2      0.0355
     5: 319 a1/2   -> 335 a1/2      0.0294
     5: 320 a1/2   -> 336 a1/2      0.0294
     5: 312 a1/2   -> 339 a1/2      0.0286
     5: 311 a1/2   -> 340 a1/2      0.0286
     5: 319 a1/2   -> 339 a1/2      0.0152
     5: 320 a1/2   -> 340 a1/2      0.0152
     5: 316 a1/2   -> 336 a1/2      0.0112
     5: 315 a1/2   -> 335 a1/2      0.0112
     5: 312 a1/2   -> 336 a1/2      0.0102
     5: 311 a1/2   -> 335 a1/2      0.0102


     6: 327 a1/2   -> 335 a1/2      0.1124
     6: 328 a1/2   -> 336 a1/2      0.1124
     6: 300 a1/2   -> 335 a1/2      0.0731
     6: 299 a1/2   -> 336 a1/2      0.0731
     6: 311 a1/2   -> 336 a1/2      0.0638
     6: 312 a1/2   -> 335 a1/2      0.0638
     6: 319 a1/2   -> 335 a1/2      0.0369
     6: 320 a1/2   -> 336 a1/2      0.0369
     6: 328 a1/2   -> 340 a1/2      0.0272
     6: 327 a1/2   -> 339 a1/2      0.0272
     6: 299 a1/2   -> 340 a1/2      0.0205
     6: 300 a1/2   -> 339 a1/2      0.0205
     6: 311 a1/2   -> 340 a1/2      0.0164
     6: 312 a1/2   -> 339 a1/2      0.0164
     6: 315 a1/2   -> 335 a1/2      0.0158
     6: 316 a1/2   -> 336 a1/2      0.0158
     6: 322 a1/2   -> 335 a1/2      0.0098
     6: 321 a1/2   -> 336 a1/2      0.0098
     6: 327 a1/2   -> 344 a1/2      0.0098
     6: 328 a1/2   -> 343 a1/2      0.0097


     7: 328 a1/2   -> 338 a1/2      0.0407
     7: 327 a1/2   -> 337 a1/2      0.0407
     7: 327 a1/2   -> 340 a1/2      0.0351
     7: 328 a1/2   -> 339 a1/2      0.0351
     7: 299 a1/2   -> 338 a1/2      0.0281
     7: 300 a1/2   -> 337 a1/2      0.0281
     7: 300 a1/2   -> 340 a1/2      0.0262
     7: 299 a1/2   -> 339 a1/2      0.0261
     7: 328 a1/2   -> 342 a1/2      0.0240
     7: 327 a1/2   -> 341 a1/2      0.0240
     7: 311 a1/2   -> 338 a1/2      0.0230
     7: 312 a1/2   -> 337 a1/2      0.0230
     7: 312 a1/2   -> 340 a1/2      0.0208
     7: 311 a1/2   -> 339 a1/2      0.0207
     7: 300 a1/2   -> 341 a1/2      0.0165
     7: 299 a1/2   -> 342 a1/2      0.0165
     7: 328 a1/2   -> 335 a1/2      0.0164
     7: 327 a1/2   -> 336 a1/2      0.0164
     7: 320 a1/2   -> 338 a1/2      0.0137
     7: 319 a1/2   -> 337 a1/2      0.0137


     8: 327 a1/2   -> 337 a1/2      0.0530
     8: 328 a1/2   -> 338 a1/2      0.0530
     8: 300 a1/2   -> 337 a1/2      0.0372
     8: 299 a1/2   -> 338 a1/2      0.0372
     8: 311 a1/2   -> 338 a1/2      0.0327
     8: 312 a1/2   -> 337 a1/2      0.0327
     8: 327 a1/2   -> 341 a1/2      0.0317
     8: 328 a1/2   -> 342 a1/2      0.0317
     8: 300 a1/2   -> 341 a1/2      0.0252
     8: 299 a1/2   -> 342 a1/2      0.0252
     8: 311 a1/2   -> 342 a1/2      0.0229
     8: 312 a1/2   -> 341 a1/2      0.0229
     8: 319 a1/2   -> 337 a1/2      0.0185
     8: 320 a1/2   -> 338 a1/2      0.0185
     8: 300 a1/2   -> 345 a1/2      0.0180
     8: 299 a1/2   -> 346 a1/2      0.0180
     8: 327 a1/2   -> 345 a1/2      0.0165
     8: 328 a1/2   -> 346 a1/2      0.0165
     8: 312 a1/2   -> 345 a1/2      0.0156
     8: 311 a1/2   -> 346 a1/2      0.0156


     9: 330 a1/2   -> 341 a1/2      0.1878
     9: 329 a1/2   -> 342 a1/2      0.1501
     9: 330 a1/2   -> 337 a1/2      0.0893
     9: 329 a1/2   -> 338 a1/2      0.0682
     9: 330 a1/2   -> 340 a1/2      0.0290
     9: 330 a1/2   -> 342 a1/2      0.0281
     9: 325 a1/2   -> 339 a1/2      0.0272
     9: 329 a1/2   -> 339 a1/2      0.0219
     9: 326 a1/2   -> 340 a1/2      0.0197
     9: 329 a1/2   -> 341 a1/2      0.0150
     9: 325 a1/2   -> 335 a1/2      0.0147
     9: 321 a1/2   -> 339 a1/2      0.0143
     9: 326 a1/2   -> 336 a1/2      0.0109
     9: 325 a1/2   -> 338 a1/2      0.0106
     9: 322 a1/2   -> 340 a1/2      0.0104
     9: 305 a1/2   -> 349 a1/2      0.0089
     9: 315 a1/2   -> 341 a1/2      0.0084
     9: 302 a1/2   -> 365 a1/2      0.0082
     9: 326 a1/2   -> 337 a1/2      0.0078
     9: 321 a1/2   -> 349 a1/2      0.0071


    10: 329 a1/2   -> 341 a1/2      0.1725
    10: 330 a1/2   -> 342 a1/2      0.1686
    10: 329 a1/2   -> 337 a1/2      0.0791
    10: 330 a1/2   -> 338 a1/2      0.0787
    10: 330 a1/2   -> 339 a1/2      0.0250
    10: 329 a1/2   -> 340 a1/2      0.0248
    10: 326 a1/2   -> 339 a1/2      0.0242
    10: 325 a1/2   -> 340 a1/2      0.0238
    10: 330 a1/2   -> 341 a1/2      0.0216
    10: 329 a1/2   -> 342 a1/2      0.0193
    10: 326 a1/2   -> 335 a1/2      0.0134
    10: 325 a1/2   -> 336 a1/2      0.0129
    10: 322 a1/2   -> 339 a1/2      0.0124
    10: 321 a1/2   -> 340 a1/2      0.0121
    10: 326 a1/2   -> 338 a1/2      0.0083
    10: 325 a1/2   -> 337 a1/2      0.0080
    10: 305 a1/2   -> 350 a1/2      0.0078
    10: 306 a1/2   -> 349 a1/2      0.0078
    10: 301 a1/2   -> 365 a1/2      0.0076
    10: 316 a1/2   -> 341 a1/2      0.0075


    11: 329 a1/2   -> 342 a1/2      0.1494
    11: 330 a1/2   -> 341 a1/2      0.1095
    11: 329 a1/2   -> 338 a1/2      0.0861
    11: 330 a1/2   -> 337 a1/2      0.0653
    11: 329 a1/2   -> 341 a1/2      0.0650
    11: 330 a1/2   -> 342 a1/2      0.0558
    11: 326 a1/2   -> 340 a1/2      0.0292
    11: 329 a1/2   -> 339 a1/2      0.0285
    11: 325 a1/2   -> 339 a1/2      0.0226
    11: 330 a1/2   -> 340 a1/2      0.0217
    11: 326 a1/2   -> 336 a1/2      0.0164
    11: 322 a1/2   -> 340 a1/2      0.0143
    11: 325 a1/2   -> 335 a1/2      0.0128
    11: 326 a1/2   -> 337 a1/2      0.0114
    11: 321 a1/2   -> 339 a1/2      0.0109
    11: 306 a1/2   -> 350 a1/2      0.0100
    11: 325 a1/2   -> 338 a1/2      0.0088
    11: 305 a1/2   -> 349 a1/2      0.0078
    11: 322 a1/2   -> 350 a1/2      0.0072
    11: 286 a1/2   -> 385 a1/2      0.0071


    12: 319 a1/2   -> 333 a1/2      0.1039
    12: 320 a1/2   -> 334 a1/2      0.0942
    12: 322 a1/2   -> 333 a1/2      0.0503
    12: 313 a1/2   -> 331 a1/2      0.0492
    12: 314 a1/2   -> 331 a1/2      0.0488
    12: 323 a1/2   -> 333 a1/2      0.0473
    12: 313 a1/2   -> 332 a1/2      0.0465
    12: 314 a1/2   -> 332 a1/2      0.0465
    12: 321 a1/2   -> 334 a1/2      0.0454
    12: 324 a1/2   -> 334 a1/2      0.0429
    12: 327 a1/2   -> 333 a1/2      0.0297
    12: 328 a1/2   -> 334 a1/2      0.0269
    12: 318 a1/2   -> 333 a1/2      0.0262
    12: 317 a1/2   -> 334 a1/2      0.0236
    12: 320 a1/2   -> 333 a1/2      0.0216
    12: 319 a1/2   -> 334 a1/2      0.0215
    12: 298 a1/2   -> 332 a1/2      0.0141
    12: 297 a1/2   -> 331 a1/2      0.0140
    12: 298 a1/2   -> 348 a1/2      0.0111
    12: 297 a1/2   -> 347 a1/2      0.0109


    13: 319 a1/2   -> 333 a1/2      0.1153
    13: 320 a1/2   -> 334 a1/2      0.1128
    13: 314 a1/2   -> 331 a1/2      0.0907
    13: 313 a1/2   -> 332 a1/2      0.0818
    13: 323 a1/2   -> 333 a1/2      0.0471
    13: 324 a1/2   -> 334 a1/2      0.0467
    13: 321 a1/2   -> 334 a1/2      0.0421
    13: 322 a1/2   -> 333 a1/2      0.0414
    13: 327 a1/2   -> 333 a1/2      0.0369
    13: 328 a1/2   -> 334 a1/2      0.0355
    13: 318 a1/2   -> 333 a1/2      0.0273
    13: 317 a1/2   -> 334 a1/2      0.0268
    13: 298 a1/2   -> 331 a1/2      0.0115
    13: 314 a1/2   -> 332 a1/2      0.0115
    13: 321 a1/2   -> 333 a1/2      0.0114
    13: 314 a1/2   -> 347 a1/2      0.0110
    13: 313 a1/2   -> 348 a1/2      0.0103
    13: 297 a1/2   -> 332 a1/2      0.0098
    13: 293 a1/2   -> 355 a1/2      0.0096
    13: 294 a1/2   -> 356 a1/2      0.0091


    14: 319 a1/2   -> 334 a1/2      0.0998
    14: 320 a1/2   -> 333 a1/2      0.0947
    14: 313 a1/2   -> 332 a1/2      0.0568
    14: 322 a1/2   -> 334 a1/2      0.0462
    14: 314 a1/2   -> 331 a1/2      0.0455
    14: 313 a1/2   -> 331 a1/2      0.0450
    14: 323 a1/2   -> 334 a1/2      0.0449
    14: 314 a1/2   -> 332 a1/2      0.0437
    14: 321 a1/2   -> 333 a1/2      0.0430
    14: 324 a1/2   -> 333 a1/2      0.0422
    14: 320 a1/2   -> 334 a1/2      0.0294
    14: 327 a1/2   -> 334 a1/2      0.0288
    14: 328 a1/2   -> 333 a1/2      0.0276
    14: 318 a1/2   -> 334 a1/2      0.0243
    14: 317 a1/2   -> 333 a1/2      0.0231
    14: 319 a1/2   -> 333 a1/2      0.0172
    14: 297 a1/2   -> 332 a1/2      0.0142
    14: 298 a1/2   -> 331 a1/2      0.0114
    14: 328 a1/2   -> 334 a1/2      0.0112
    14: 324 a1/2   -> 334 a1/2      0.0105


    15: 328 a1/2   -> 345 a1/2      0.0667
    15: 299 a1/2   -> 345 a1/2      0.0623
    15: 327 a1/2   -> 346 a1/2      0.0578
    15: 311 a1/2   -> 345 a1/2      0.0566
    15: 300 a1/2   -> 346 a1/2      0.0557
    15: 312 a1/2   -> 346 a1/2      0.0516
    15: 328 a1/2   -> 343 a1/2      0.0407
    15: 327 a1/2   -> 344 a1/2      0.0382
    15: 299 a1/2   -> 343 a1/2      0.0328
    15: 328 a1/2   -> 346 a1/2      0.0309
    15: 300 a1/2   -> 344 a1/2      0.0307
    15: 311 a1/2   -> 343 a1/2      0.0270
    15: 312 a1/2   -> 344 a1/2      0.0250
    15: 327 a1/2   -> 345 a1/2      0.0230
    15: 320 a1/2   -> 345 a1/2      0.0210
    15: 319 a1/2   -> 346 a1/2      0.0178
    15: 299 a1/2   -> 346 a1/2      0.0177
    15: 320 a1/2   -> 343 a1/2      0.0132
    15: 320 a1/2   -> 346 a1/2      0.0127
    15: 319 a1/2   -> 344 a1/2      0.0125


    16: 327 a1/2   -> 345 a1/2      0.0752
    16: 300 a1/2   -> 345 a1/2      0.0751
    16: 312 a1/2   -> 345 a1/2      0.0701
    16: 299 a1/2   -> 346 a1/2      0.0653
    16: 328 a1/2   -> 346 a1/2      0.0634
    16: 311 a1/2   -> 346 a1/2      0.0619
    16: 327 a1/2   -> 346 a1/2      0.0593
    16: 328 a1/2   -> 345 a1/2      0.0534
    16: 300 a1/2   -> 346 a1/2      0.0381
    16: 299 a1/2   -> 345 a1/2      0.0327
    16: 312 a1/2   -> 346 a1/2      0.0277
    16: 311 a1/2   -> 345 a1/2      0.0230
    16: 319 a1/2   -> 346 a1/2      0.0227
    16: 319 a1/2   -> 345 a1/2      0.0224
    16: 320 a1/2   -> 345 a1/2      0.0208
    16: 320 a1/2   -> 346 a1/2      0.0184
    16: 315 a1/2   -> 346 a1/2      0.0121
    16: 316 a1/2   -> 345 a1/2      0.0117
    16: 322 a1/2   -> 346 a1/2      0.0072
    16: 321 a1/2   -> 345 a1/2      0.0068
 

 All SPIN-POLARIZED excitation energies

 no.     E/a.u.        E/eV      f           tau/s        Symmetry
 ------------------------------------------------------------------
   1:     0.08413      2.28918   0.1070E-03   0.4110E-04  A           
   2:     0.08488      2.30978   0.2848E-04   0.1517E-03  A           
   3:     0.08620      2.34554   0.3102E-08    1.350      A           
   4:     0.08649      2.35347   0.4388E-06   0.9483E-02  A           
   5:     0.08965      2.43944   0.3817E-08    1.015      A           
   6:     0.09006      2.45059   0.3932E-04   0.9760E-04  A           
   7:     0.09449      2.57107   0.7751E-03   0.4498E-05  A           
   8:     0.09766      2.65755   0.1472E-03   0.2217E-04  A           
   9:     0.10031      2.72952   0.1092E-07   0.2832      A           
  10:     0.10031      2.72954   0.3403E-08   0.9090      A           
  11:     0.10031      2.72956   0.9004E-07   0.3435E-01  A           
  12:     0.10179      2.76998   0.4547E-08   0.6605      A           
  13:     0.10180      2.76999   0.9122E-08   0.3293      A           
  14:     0.10180      2.77000   0.1552E-06   0.1935E-01  A           
  15:     0.11257      3.06313   0.8993E-05   0.2731E-03  A           
  16:     0.11297      3.07408   0.8852E-05   0.2755E-03  A           

 tau: electric dipole radiative lifetime (in seconds)

 Unrelaxed approximate excited state dipole moments

 no.       E/eV     Excited state dipole moment (Debye)   Symmetry
 ------------------------------------------------------------------
   1:      2.28918     3.20087     0.01868    -0.01128    A
   2:      2.30978     3.20901     0.01843    -0.01116    A
   3:      2.34554     3.37748     0.01961    -0.01225    A
   4:      2.35347     3.42301     0.02038    -0.01237    A
   5:      2.43944     3.12419     0.01924    -0.01108    A
   6:      2.45059     3.27613     0.01839    -0.01172    A
   7:      2.57107     3.30817     0.01960    -0.01205    A
   8:      2.65755     3.36460     0.01979    -0.01206    A
   9:      2.72952     3.55014     0.02073    -0.01322    A
  10:      2.72954     3.55012     0.02056    -0.01219    A
  11:      2.72956     3.55001     0.02068    -0.01270    A
  12:      2.76998     3.69053     0.02142    -0.01301    A
  13:      2.76999     3.69042     0.02231    -0.01285    A
  14:      2.77000     3.69025     0.02282    -0.01277    A
  15:      3.06313     3.31981     0.01585    -0.00719    A
  16:      3.07408     3.41234     0.02477    -0.01754    A


 Normal termination of EXCITATION program part





 =======================================================================
 Electrostatic potential at the Nuclei due to electrons and other nuclei
 =======================================================================
  
         Atom                  Potential
         ----                  ---------
     1)   U                 807.64007072
     2)   O                  22.42757388
     3)   O                  22.42757430
     4)   N                  18.37736476
     5)   C                  14.72890839
     6)   H                   1.08946955
     7)   C                  14.75211466
     8)   H                   1.07073908
     9)   C                  14.73811547
    10)   H                   1.06122332
    11)   C                  14.73532957
    12)   C                  14.74755967
    13)   H                   1.06743808
    14)   C                  14.74756298
    15)   H                   1.06742041
    16)   C                  14.73531716
    17)   C                  14.73811018
    18)   H                   1.06120313
    19)   C                  14.75213156
    20)   H                   1.07074165
    21)   C                  14.72891883
    22)   H                   1.08947971
    23)   N                  18.37737373
    24)   C                  14.70857530
    25)   C                  14.70858211
    26)   Cl                 64.96589701
    27)   Cl                 64.96589116
    28)   N                  18.40004814
    29)   C                  14.74192545
    30)   H                   1.10103809
    31)   C                  14.76581498
    32)   H                   1.08328105
    33)   C                  14.75331798
    34)   H                   1.07557455
    35)   C                  14.75198587
    36)   C                  14.76227895
    37)   H                   1.08203166
    38)   C                  14.76229319
    39)   H                   1.08205707
    40)   C                  14.75198191
    41)   C                  14.75331151
    42)   H                   1.07560265
    43)   C                  14.76580082
    44)   H                   1.08327749
    45)   C                  14.74190302
    46)   H                   1.10104719
    47)   N                  18.40005775
    48)   C                  14.72923730
    49)   C                  14.72924078
 Mulliken charges used for AMS results%charges...


    =====================
     CALCULATION RESULTS
    =====================

Energy (hartree)          -109.35745733


--------------
Atomic charges
--------------
  Index   Atom    Charge
      1      U    2.0071
      2      O   -0.6665
      3      O   -0.6665
      4      N   -0.4660
      5      C    0.4399
      6      H   -0.1377
      7      C    0.1633
      8      H   -0.1905
      9      C    0.2609
     10      H   -0.1940
     11      C   -0.0013
     12      C    0.2143
     13      H   -0.1980
     14      C    0.2144
     15      H   -0.1981
     16      C   -0.0013
     17      C    0.2609
     18      H   -0.1940
     19      C    0.1632
     20      H   -0.1905
     21      C    0.4399
     22      H   -0.1376
     23      N   -0.4660
     24      C    0.1802
     25      C    0.1801
     26     Cl   -0.4987
     27     Cl   -0.4987
     28      N   -0.4194
     29      C    0.4452
     30      H   -0.1553
     31      C    0.1635
     32      H   -0.1964
     33      C    0.2581
     34      H   -0.2000
     35      C   -0.0009
     36      C    0.2123
     37      H   -0.2030
     38      C    0.2122
     39      H   -0.2029
     40      C   -0.0009
     41      C    0.2581
     42      H   -0.1999
     43      C    0.1635
     44      H   -0.1964
     45      C    0.4451
     46      H   -0.1553
     47      N   -0.4193
     48      C    0.1865
     49      C    0.1865


Dipole moment vector    (Debye):     3.61618271    0.02096112   -0.01263282
              magnitude (Debye):     3.61626553


AMS application finished. Exiting.
NORMAL TERMINATION
     Total cpu time:  288409.25
  Total system time:   14910.85
 Total elapsed time:  303632.52
