 Entering Gaussian System, Link 0=/home/pcmt/gaussian/g16.C.01/g16/g16
 AtFile(1): /home/vallet/basis/U-ECP60MWB_SEG
 AtFile(1): /home/vallet/basis/U-ECP60MWB
 Initial command:
 /home/pcmt/gaussian/g16.C.01/g16/l1.exe "/state/partition2/vallet/848339.phlam-s-sakura/Gau-68012.inp" -scrdir="/state/partition2/vallet/848339.phlam-s-sakura/"
 Entering Link 1 = /home/pcmt/gaussian/g16.C.01/g16/l1.exe PID=     68013.
  
 Copyright (c) 1988-2019, Gaussian, Inc.  All Rights Reserved.
  
 This is part of the Gaussian(R) 16 program.  It is based on
 the Gaussian(R) 09 system (copyright 2009, Gaussian, Inc.),
 the Gaussian(R) 03 system (copyright 2003, Gaussian, Inc.),
 the Gaussian(R) 98 system (copyright 1998, Gaussian, Inc.),
 the Gaussian(R) 94 system (copyright 1995, Gaussian, Inc.),
 the Gaussian 92(TM) system (copyright 1992, Gaussian, Inc.),
 the Gaussian 90(TM) system (copyright 1990, Gaussian, Inc.),
 the Gaussian 88(TM) system (copyright 1988, Gaussian, Inc.),
 the Gaussian 86(TM) system (copyright 1986, Carnegie Mellon
 University), and the Gaussian 82(TM) system (copyright 1983,
 Carnegie Mellon University). Gaussian is a federally registered
 trademark of Gaussian, Inc.
  
 This software contains proprietary and confidential information,
 including trade secrets, belonging to Gaussian, Inc.
  
 This software is provided under written license and may be
 used, copied, transmitted, or stored only in accord with that
 written license.
  
 The following legend is applicable only to US Government
 contracts under FAR:
  
                    RESTRICTED RIGHTS LEGEND
  
 Use, reproduction and disclosure by the US Government is
 subject to restrictions as set forth in subparagraphs (a)
 and (c) of the Commercial Computer Software - Restricted
 Rights clause in FAR 52.227-19.
  
 Gaussian, Inc.
 340 Quinnipiac St., Bldg. 40, Wallingford CT 06492
  
  
 ---------------------------------------------------------------
 Warning -- This program may not be used in any manner that
 competes with the business of Gaussian, Inc. or will provide
 assistance to any competitor of Gaussian, Inc.  The licensee
 of this program is prohibited from giving any competitor of
 Gaussian, Inc. access to this program.  By using this program,
 the user acknowledges that Gaussian, Inc. is engaged in the
 business of creating and licensing software in the field of
 computational chemistry and represents and warrants to the
 licensee that it is not a competitor of Gaussian, Inc. and that
 it will not use this program in any manner prohibited above.
 ---------------------------------------------------------------
  

 Cite this work as:
 Gaussian 16, Revision C.01,
 M. J. Frisch, G. W. Trucks, H. B. Schlegel, G. E. Scuseria, 
 M. A. Robb, J. R. Cheeseman, G. Scalmani, V. Barone, 
 G. A. Petersson, H. Nakatsuji, X. Li, M. Caricato, A. V. Marenich, 
 J. Bloino, B. G. Janesko, R. Gomperts, B. Mennucci, H. P. Hratchian, 
 J. V. Ortiz, A. F. Izmaylov, J. L. Sonnenberg, D. Williams-Young, 
 F. Ding, F. Lipparini, F. Egidi, J. Goings, B. Peng, A. Petrone, 
 T. Henderson, D. Ranasinghe, V. G. Zakrzewski, J. Gao, N. Rega, 
 G. Zheng, W. Liang, M. Hada, M. Ehara, K. Toyota, R. Fukuda, 
 J. Hasegawa, M. Ishida, T. Nakajima, Y. Honda, O. Kitao, H. Nakai, 
 T. Vreven, K. Throssell, J. A. Montgomery, Jr., J. E. Peralta, 
 F. Ogliaro, M. J. Bearpark, J. J. Heyd, E. N. Brothers, K. N. Kudin, 
 V. N. Staroverov, T. A. Keith, R. Kobayashi, J. Normand, 
 K. Raghavachari, A. P. Rendell, J. C. Burant, S. S. Iyengar, 
 J. Tomasi, M. Cossi, J. M. Millam, M. Klene, C. Adamo, R. Cammi, 
 J. W. Ochterski, R. L. Martin, K. Morokuma, O. Farkas, 
 J. B. Foresman, and D. J. Fox, Gaussian, Inc., Wallingford CT, 2019.
 
 ******************************************
 Gaussian 16:  ES64L-G16RevC.01  3-Jul-2019
                12-Jan-2022 
 ******************************************
 %mem=8000Mb
 %NProc=4
 Will use up to    4 processors via shared memory.
 %oldchk=tddft-uo2_cl2.pbe0-d3.optg.chk
 %chk=tddft-uo2_cl2.pbe0-d3.freq.chk
 Copying data from "tddft-uo2_cl2.pbe0-d3.optg.chk" to current chk file "tddft-uo2_cl2.pbe0-d3.freq.chk"
 IOpt=  2 FromEx=T IUOpen= 4 IOptOp= 5 NList=   0 IFRang= 0 IUIn= 4 IUOut= 2.
 ----------------------------------------------------------------------
 #p PBE1PBE/GEN GFInput GFPrint 5D 7F Pseudo=Read IOP(2/9=2, 4/69=2, 6/
 7=3, 8/10=91, 8/37=22, 8/38=0) EmpiricalDispersion=GD3BJ Symm=(Loose) 
 Int=(UltraFine) Guess=(CheckPoint) Geom=CheckPoint Scf=(NoVarAcc,MaxCy
 cle=100,conver=8) td=(triplets,nstates=4,root=1) Freq
 ----------------------------------------------------------------------
 1/10=4,29=2,30=1,38=1/1,3;
 2/9=2,12=2,17=4,18=3,40=1/2;
 3/5=7,8=11,11=9,14=-4,16=1,17=8,24=110,25=1,30=1,71=2,74=-13,75=-5,116=-2,124=41,140=1/1,2,3,8;
 4/5=1,69=2/1;
 5/5=2,6=8,7=100,38=6,98=1/2;
 8/6=1,10=91,37=22,107=1,108=4/1;
 9/8=1,15=3,41=4,42=1,48=3,70=2/14;
 10/5=2004,20=4,28=1/2;
 11/6=1,8=1,12=-1,16=1,42=3/1,2,10;
 10/6=3,21=1,28=1/2,14;
 6/7=3,8=2,9=2,10=2/1;
 7/8=1,10=1,12=6,13=8,14=1,25=1,44=2/1,2,3,16;
 1/10=4,30=1/3;
 99//99;
 Leave Link    1 at Wed Jan 12 19:59:32 2022, MaxMem=  1048576000 cpu:               0.8 elap:               0.5
 (Enter /home/pcmt/gaussian/g16.C.01/g16/l101.exe)
 ---------------------------
 [UO2Cl4]2- - PBE0+D3BJ - ES
 ---------------------------
 Structure from the checkpoint file:  "tddft-uo2_cl2.pbe0-d3.freq.chk"
 Charge =  0 Multiplicity = 1
 Redundant internal coordinates found in file.  (old form).
 U,0,0.,0.257052022,0.
 O,0,-1.7418417325,0.495479265,0.
 O,0,1.7418417325,0.495479265,0.
 Cl,0,0.,-1.270978986,-1.992448839
 Cl,0,0.,-1.270978986,1.992448839
 Recover connectivity data from disk.
 ITRead=  0  0  0  0  0
 MicOpt= -1 -1 -1 -1 -1
 NAtoms=      5 NQM=        5 NQMF=       0 NMMI=      0 NMMIF=      0
                NMic=       0 NMicF=      0.
                    Isotopes and Nuclear Properties:
 (Nuclear quadrupole moments (NQMom) in fm**2, nuclear magnetic moments (NMagM)
  in nuclear magnetons)

  Atom         1           2           3           4           5
 IAtWgt=         238          16          16          35          35
 AtmWgt= 238.0508000  15.9949146  15.9949146  34.9688527  34.9688527
 NucSpn=           0           0           0           3           3
 AtZEff=   0.0000000   5.6000000   5.6000000  14.2400000  14.2400000
 NQMom=    0.0000000   0.0000000   0.0000000  -8.1650000  -8.1650000
 NMagM=    0.0000000   0.0000000   0.0000000   0.8218740   0.8218740
 AtZNuc=  92.0000000   8.0000000   8.0000000  17.0000000  17.0000000
 Leave Link  101 at Wed Jan 12 19:59:35 2022, MaxMem=  1048576000 cpu:               2.2 elap:               2.2
 (Enter /home/pcmt/gaussian/g16.C.01/g16/l103.exe)

 GradGradGradGradGradGradGradGradGradGradGradGradGradGradGradGradGradGrad
 Berny optimization.
 Initialization pass.
                           ----------------------------
                           !    Initial Parameters    !
                           ! (Angstroms and Degrees)  !
 --------------------------                            --------------------------
 ! Name  Definition              Value          Derivative Info.                !
 --------------------------------------------------------------------------------
 ! R1    R(1,2)                  1.7581         calculate D2E/DX2 analytically  !
 ! R2    R(1,3)                  1.7581         calculate D2E/DX2 analytically  !
 ! R3    R(1,4)                  2.5109         calculate D2E/DX2 analytically  !
 ! R4    R(1,5)                  2.5109         calculate D2E/DX2 analytically  !
 ! A1    A(2,1,4)               94.734          calculate D2E/DX2 analytically  !
 ! A2    A(2,1,5)               94.734          calculate D2E/DX2 analytically  !
 ! A3    A(3,1,4)               94.734          calculate D2E/DX2 analytically  !
 ! A4    A(3,1,5)               94.734          calculate D2E/DX2 analytically  !
 ! A5    A(4,1,5)              105.03           calculate D2E/DX2 analytically  !
 ! A6    L(2,1,3,4,-1)         189.4681         calculate D2E/DX2 analytically  !
 ! A7    L(2,1,3,4,-2)         167.6019         calculate D2E/DX2 analytically  !
 ! D1    D(2,1,5,4)             96.199          calculate D2E/DX2 analytically  !
 ! D2    D(3,1,5,4)            -96.199          calculate D2E/DX2 analytically  !
 --------------------------------------------------------------------------------
 Trust Radius=3.00D-01 FncErr=1.00D-07 GrdErr=1.00D-07 EigMax=2.50D+02 EigMin=1.00D-04
 Number of steps in this run=      2 maximum allowed number of steps=      2.
 GradGradGradGradGradGradGradGradGradGradGradGradGradGradGradGradGradGrad

 Leave Link  103 at Wed Jan 12 19:59:35 2022, MaxMem=  1048576000 cpu:               0.4 elap:               0.3
 (Enter /home/pcmt/gaussian/g16.C.01/g16/l202.exe)
                          Input orientation:                          
 ---------------------------------------------------------------------
 Center     Atomic      Atomic             Coordinates (Angstroms)
 Number     Number       Type             X           Y           Z
 ---------------------------------------------------------------------
      1         92           0        0.000000    0.257052    0.000000
      2          8           0       -1.741842    0.495479   -0.000000
      3          8           0        1.741842    0.495479    0.000000
      4         17           0       -0.000000   -1.270979   -1.992449
      5         17           0       -0.000000   -1.270979    1.992449
 ---------------------------------------------------------------------
                    Distance matrix (angstroms):
                    1          2          3          4          5
     1  U    0.000000
     2  O    1.758084   0.000000
     3  O    1.758084   3.483683   0.000000
     4  Cl   2.510922   3.181861   3.181861   0.000000
     5  Cl   2.510922   3.181861   3.181861   3.984898   0.000000
 Stoichiometry    Cl2O2U
 Framework group  C2V[C2(U),SGV(O2),SGV'(Cl2)]
 Deg. of freedom     4
 Full point group                 C2V     NOp   4
 RotChk:  IX=0 Diff= 2.66D-15
 Largest Abelian subgroup         C2V     NOp   4
 Largest concise Abelian subgroup C2V     NOp   4
                         Standard orientation:                         
 ---------------------------------------------------------------------
 Center     Atomic      Atomic             Coordinates (Angstroms)
 Number     Number       Type             X           Y           Z
 ---------------------------------------------------------------------
      1         92           0        0.000000    0.000000    0.339002
      2          8           0        0.000000    1.741842    0.577429
      3          8           0       -0.000000   -1.741842    0.577429
      4         17           0        1.992449   -0.000000   -1.189029
      5         17           0       -1.992449    0.000000   -1.189029
 ---------------------------------------------------------------------
 Rotational constants (GHZ):           2.1671107           1.3487567           1.2213451
 Leave Link  202 at Wed Jan 12 19:59:35 2022, MaxMem=  1048576000 cpu:               0.4 elap:               0.4
 (Enter /home/pcmt/gaussian/g16.C.01/g16/l301.exe)
 General basis read from cards:  (5D, 7F)
 Centers:       1
 S 3 1.00
     Exponent=  1.2098082000D+04 Coefficients=  1.0200000000D-04
     Exponent=  1.8337573000D+03 Coefficients=  7.7100000000D-04
     Exponent=  3.5168632000D+02 Coefficients=  2.9690000000D-03
 S 1 1.00
     Exponent=  1.0431426000D+02 Coefficients=  1.0000000000D+00
 S 3 1.00
     Exponent=  6.0905822000D+01 Coefficients=  4.9868000000D-02
     Exponent=  3.5515086000D+01 Coefficients= -2.4531300000D-01
     Exponent=  2.0891227000D+01 Coefficients=  7.2384700000D-01
 S 1 1.00
     Exponent=  1.0184647000D+01 Coefficients=  1.0000000000D+00
 S 1 1.00
     Exponent=  2.8518510000D+00 Coefficients=  1.0000000000D+00
 S 1 1.00
     Exponent=  1.5316160000D+00 Coefficients=  1.0000000000D+00
 S 1 1.00
     Exponent=  6.1620300000D-01 Coefficients=  1.0000000000D+00
 S 1 1.00
     Exponent=  2.7949400000D-01 Coefficients=  1.0000000000D+00
 S 1 1.00
     Exponent=  5.7253000000D-02 Coefficients=  1.0000000000D+00
 S 1 1.00
     Exponent=  2.3443000000D-02 Coefficients=  1.0000000000D+00
 P 5 1.00
     Exponent=  2.9068451000D+03 Coefficients=  8.8000000000D-05
     Exponent=  6.9440053000D+02 Coefficients=  7.3200000000D-04
     Exponent=  2.2463479000D+02 Coefficients=  3.4140000000D-03
     Exponent=  8.0520526000D+01 Coefficients=  1.1099000000D-02
     Exponent=  2.4080211000D+01 Coefficients=  2.5216000000D-02
 P 1 1.00
     Exponent=  1.4077580000D+01 Coefficients=  1.0000000000D+00
 P 1 1.00
     Exponent=  8.2658460000D+00 Coefficients=  1.0000000000D+00
 P 1 1.00
     Exponent=  3.4236070000D+00 Coefficients=  1.0000000000D+00
 P 1 1.00
     Exponent=  1.7084170000D+00 Coefficients=  1.0000000000D+00
 P 1 1.00
     Exponent=  6.5504600000D-01 Coefficients=  1.0000000000D+00
 P 1 1.00
     Exponent=  2.8375500000D-01 Coefficients=  1.0000000000D+00
 P 1 1.00
     Exponent=  1.0181400000D-01 Coefficients=  1.0000000000D+00
 P 1 1.00
     Exponent=  3.0535000000D-02 Coefficients=  1.0000000000D+00
 D 6 1.00
     Exponent=  4.4901953000D+02 Coefficients=  5.0000000000D-05
     Exponent=  1.5635695000D+02 Coefficients=  3.2200000000D-04
     Exponent=  6.0242439000D+01 Coefficients=  1.7770000000D-03
     Exponent=  1.7772317000D+01 Coefficients=  2.5385000000D-02
     Exponent=  1.0454304000D+01 Coefficients= -8.9378000000D-02
     Exponent=  3.5834330000D+00 Coefficients=  4.4479900000D-01
 D 1 1.00
     Exponent=  1.7637240000D+00 Coefficients=  1.0000000000D+00
 D 1 1.00
     Exponent=  7.8403000000D-01 Coefficients=  1.0000000000D+00
 D 1 1.00
     Exponent=  2.7612700000D-01 Coefficients=  1.0000000000D+00
 D 1 1.00
     Exponent=  8.6980000000D-02 Coefficients=  1.0000000000D+00
 F 5 1.00
     Exponent=  1.0528793000D+02 Coefficients=  2.2800000000D-04
     Exponent=  3.5101181000D+01 Coefficients=  2.3080000000D-03
     Exponent=  1.4564138000D+01 Coefficients=  9.2530000000D-03
     Exponent=  4.6518850000D+00 Coefficients=  1.3694900000D-01
     Exponent=  2.2559730000D+00 Coefficients=  3.3980100000D-01
 F 1 1.00
     Exponent=  1.0102740000D+00 Coefficients=  1.0000000000D+00
 F 1 1.00
     Exponent=  4.1168000000D-01 Coefficients=  1.0000000000D+00
 F 1 1.00
     Exponent=  1.4412000000D-01 Coefficients=  1.0000000000D+00
 G 4 1.00
     Exponent=  1.0528793000D+02 Coefficients=  1.3700000000D-04
     Exponent=  3.5101181000D+01 Coefficients=  1.8310000000D-03
     Exponent=  1.4564138000D+01 Coefficients=  1.9940000000D-02
     Exponent=  4.6518850000D+00 Coefficients=  1.1075800000D-01
 G 1 1.00
     Exponent=  2.2559730000D+00 Coefficients=  1.0000000000D+00
 G 1 1.00
     Exponent=  1.0102740000D+00 Coefficients=  1.0000000000D+00
 ****
 Centers:       4      5
 Def2TZVP
 ****
 Centers:       2      3
 Def2TZVP
 ****
 ======================================================================================================
                                       Pseudopotential Parameters
 ======================================================================================================
  Center     Atomic      Valence      Angular      Power
  Number     Number     Electrons     Momentum     of R      Exponent        Coefficient   SO-Coeffient
 ======================================================================================================
    1         92           32
                                      H and up 
                                                     2        1.0000000        0.00000000    0.00000000
                                      S - H
                                                     2       16.4140387      536.51662778    0.00000000
                                      P - H
                                                     2        9.0605561      169.54492465    0.00000000
                                      D - H
                                                     2        8.8318320      142.61559837    0.00000000
                                      F - H
                                                     2        7.0185163       60.39307602    0.00000000
                                      G - H
                                                     2       12.8040884      -60.12998958    0.00000000
    2          8
                                   No pseudopotential on this center.
    3          8
                                   No pseudopotential on this center.
    4         17
                                   No pseudopotential on this center.
    5         17
                                   No pseudopotential on this center.
 ======================================================================================================
 Ernie: Thresh=  0.10000D-02 Tol=  0.10000D-05 Strict=F.
 AO basis set in the form of general basis input (Overlap normalization):
      1 0
 S   3 1.00       0.000000000000
      0.1209808200D+05  0.2884168448D-01
      0.1833757300D+04  0.2180092033D+00
      0.3516863200D+03  0.8395192276D+00
 S   3 1.00       0.000000000000
      0.6090582200D+02  0.9338504807D-01
      0.3551508600D+02 -0.4593840999D+00
      0.2089122700D+02  0.1355508280D+01
 S   1 1.00       0.000000000000
      0.1043142600D+03  0.1000000000D+01
 S   1 1.00       0.000000000000
      0.1018464700D+02  0.1000000000D+01
 S   1 1.00       0.000000000000
      0.2851851000D+01  0.1000000000D+01
 S   1 1.00       0.000000000000
      0.1531616000D+01  0.1000000000D+01
 S   1 1.00       0.000000000000
      0.6162030000D+00  0.1000000000D+01
 S   1 1.00       0.000000000000
      0.2794940000D+00  0.1000000000D+01
 S   1 1.00       0.000000000000
      0.5725300000D-01  0.1000000000D+01
 S   1 1.00       0.000000000000
      0.2344300000D-01  0.1000000000D+01
 P   5 1.00       0.000000000000
      0.2906845100D+04  0.2490724940D-02
      0.6944005300D+03  0.2071830291D-01
      0.2246347900D+03  0.9662880620D-01
      0.8052052600D+02  0.3141426831D+00
      0.2408021100D+02  0.7137059101D+00
 P   1 1.00       0.000000000000
      0.1407758000D+02  0.1000000000D+01
 P   1 1.00       0.000000000000
      0.8265846000D+01  0.1000000000D+01
 P   1 1.00       0.000000000000
      0.3423607000D+01  0.1000000000D+01
 P   1 1.00       0.000000000000
      0.1708417000D+01  0.1000000000D+01
 P   1 1.00       0.000000000000
      0.6550460000D+00  0.1000000000D+01
 P   1 1.00       0.000000000000
      0.2837550000D+00  0.1000000000D+01
 P   1 1.00       0.000000000000
      0.1018140000D+00  0.1000000000D+01
 P   1 1.00       0.000000000000
      0.3053500000D-01  0.1000000000D+01
 D   6 1.00       0.000000000000
      0.4490195300D+03  0.1244413406D-03
      0.1563569500D+03  0.8014022332D-03
      0.6024243900D+02  0.4422645243D-02
      0.1777231700D+02  0.6317886860D-01
      0.1045430400D+02 -0.2224463627D+00
      0.3583433000D+01  0.1107027677D+01
 D   1 1.00       0.000000000000
      0.1763724000D+01  0.1000000000D+01
 D   1 1.00       0.000000000000
      0.7840300000D+00  0.1000000000D+01
 D   1 1.00       0.000000000000
      0.2761270000D+00  0.1000000000D+01
 D   1 1.00       0.000000000000
      0.8698000000D-01  0.1000000000D+01
 F   5 1.00       0.000000000000
      0.1052879300D+03  0.5015876177D-03
      0.3510118100D+02  0.5077474656D-02
      0.1456413800D+02  0.2035609748D-01
      0.4651885000D+01  0.3012803625D+00
      0.2255973000D+01  0.7475437460D+00
 F   1 1.00       0.000000000000
      0.1010274000D+01  0.1000000000D+01
 F   1 1.00       0.000000000000
      0.4116800000D+00  0.1000000000D+01
 F   1 1.00       0.000000000000
      0.1441200000D+00  0.1000000000D+01
 G   4 1.00       0.000000000000
      0.1052879300D+03  0.1132460043D-02
      0.3510118100D+02  0.1513528715D-01
      0.1456413800D+02  0.1648266662D+00
      0.4651885000D+01  0.9155402153D+00
 G   1 1.00       0.000000000000
      0.2255973000D+01  0.1000000000D+01
 G   1 1.00       0.000000000000
      0.1010274000D+01  0.1000000000D+01
 ****
      2 0
 S   6 1.00       0.000000000000
      0.2703238263D+05  0.5722733521D-03
      0.4052387139D+04  0.4435323349D-02
      0.9223272271D+03  0.2302010771D-01
      0.2612407099D+03  0.9282249067D-01
      0.8535464135D+02  0.2937850001D+00
      0.3103503524D+02  0.6740160450D+00
 S   2 1.00       0.000000000000
      0.1226086073D+02  0.6383993703D+00
      0.4998707601D+01  0.3953458713D+00
 S   1 1.00       0.000000000000
      0.1170310816D+01  0.1000000000D+01
 S   1 1.00       0.000000000000
      0.4647474099D+00  0.1000000000D+01
 S   1 1.00       0.000000000000
      0.1850453636D+00  0.1000000000D+01
 P   4 1.00       0.000000000000
      0.6327495480D+02  0.1201833222D-01
      0.1462704938D+02  0.8300542179D-01
      0.4450122346D+01  0.3199174393D+00
      0.1527579965D+01  0.7071554292D+00
 P   1 1.00       0.000000000000
      0.5293511794D+00  0.1000000000D+01
 P   1 1.00       0.000000000000
      0.1747842127D+00  0.1000000000D+01
 D   1 1.00       0.000000000000
      0.2314000000D+01  0.1000000000D+01
 D   1 1.00       0.000000000000
      0.6450000000D+00  0.1000000000D+01
 F   1 1.00       0.000000000000
      0.1428000000D+01  0.1000000000D+01
 ****
      3 0
 S   6 1.00       0.000000000000
      0.2703238263D+05  0.5722733521D-03
      0.4052387139D+04  0.4435323349D-02
      0.9223272271D+03  0.2302010771D-01
      0.2612407099D+03  0.9282249067D-01
      0.8535464135D+02  0.2937850001D+00
      0.3103503524D+02  0.6740160450D+00
 S   2 1.00       0.000000000000
      0.1226086073D+02  0.6383993703D+00
      0.4998707601D+01  0.3953458713D+00
 S   1 1.00       0.000000000000
      0.1170310816D+01  0.1000000000D+01
 S   1 1.00       0.000000000000
      0.4647474099D+00  0.1000000000D+01
 S   1 1.00       0.000000000000
      0.1850453636D+00  0.1000000000D+01
 P   4 1.00       0.000000000000
      0.6327495480D+02  0.1201833222D-01
      0.1462704938D+02  0.8300542179D-01
      0.4450122346D+01  0.3199174393D+00
      0.1527579965D+01  0.7071554292D+00
 P   1 1.00       0.000000000000
      0.5293511794D+00  0.1000000000D+01
 P   1 1.00       0.000000000000
      0.1747842127D+00  0.1000000000D+01
 D   1 1.00       0.000000000000
      0.2314000000D+01  0.1000000000D+01
 D   1 1.00       0.000000000000
      0.6450000000D+00  0.1000000000D+01
 F   1 1.00       0.000000000000
      0.1428000000D+01  0.1000000000D+01
 ****
      4 0
 S   7 1.00       0.000000000000
      0.6950799094D+05  0.5145738965D-03
      0.1042615688D+05  0.3978134481D-02
      0.2373233406D+04  0.2045617867D-01
      0.6715642007D+03  0.8014810289D-01
      0.2184199979D+03  0.2345477032D+00
      0.7757224971D+02  0.4454336858D+00
      0.2888881528D+02  0.3546684250D+00
 S   3 1.00       0.000000000000
      0.1271052718D+03  0.1129368805D+00
      0.3933958296D+02  0.4837351421D+00
      0.7674067999D+01 -0.1229229739D+01
 S   2 1.00       0.000000000000
      0.3874562763D+01  0.6729682164D+00
      0.1838583257D+01  0.3495605141D+00
 S   1 1.00       0.000000000000
      0.5022905754D+00  0.1000000000D+01
 S   1 1.00       0.000000000000
      0.1796272342D+00  0.1000000000D+01
 P   5 1.00       0.000000000000
      0.6665042328D+03  0.3350250820D-02
      0.1576424169D+03  0.2676397041D-01
      0.5026252098D+02  0.1236268236D+00
      0.1853607811D+02  0.3584578792D+00
      0.7294053278D+01  0.6167729635D+00
 P   1 1.00       0.000000000000
      0.2943324899D+01  0.1000000000D+01
 P   1 1.00       0.000000000000
      0.1040497082D+01  0.1000000000D+01
 P   1 1.00       0.000000000000
      0.3845641508D+00  0.1000000000D+01
 P   1 1.00       0.000000000000
      0.1306964273D+00  0.1000000000D+01
 D   2 1.00       0.000000000000
      0.4610000000D+01  0.1826583505D+00
      0.1011000000D+01  0.9132917523D+00
 D   1 1.00       0.000000000000
      0.3390000000D+00  0.1000000000D+01
 F   1 1.00       0.000000000000
      0.7060000000D+00  0.1000000000D+01
 ****
      5 0
 S   7 1.00       0.000000000000
      0.6950799094D+05  0.5145738965D-03
      0.1042615688D+05  0.3978134481D-02
      0.2373233406D+04  0.2045617867D-01
      0.6715642007D+03  0.8014810289D-01
      0.2184199979D+03  0.2345477032D+00
      0.7757224971D+02  0.4454336858D+00
      0.2888881528D+02  0.3546684250D+00
 S   3 1.00       0.000000000000
      0.1271052718D+03  0.1129368805D+00
      0.3933958296D+02  0.4837351421D+00
      0.7674067999D+01 -0.1229229739D+01
 S   2 1.00       0.000000000000
      0.3874562763D+01  0.6729682164D+00
      0.1838583257D+01  0.3495605141D+00
 S   1 1.00       0.000000000000
      0.5022905754D+00  0.1000000000D+01
 S   1 1.00       0.000000000000
      0.1796272342D+00  0.1000000000D+01
 P   5 1.00       0.000000000000
      0.6665042328D+03  0.3350250820D-02
      0.1576424169D+03  0.2676397041D-01
      0.5026252098D+02  0.1236268236D+00
      0.1853607811D+02  0.3584578792D+00
      0.7294053278D+01  0.6167729635D+00
 P   1 1.00       0.000000000000
      0.2943324899D+01  0.1000000000D+01
 P   1 1.00       0.000000000000
      0.1040497082D+01  0.1000000000D+01
 P   1 1.00       0.000000000000
      0.3845641508D+00  0.1000000000D+01
 P   1 1.00       0.000000000000
      0.1306964273D+00  0.1000000000D+01
 D   2 1.00       0.000000000000
      0.4610000000D+01  0.1826583505D+00
      0.1011000000D+01  0.9132917523D+00
 D   1 1.00       0.000000000000
      0.3390000000D+00  0.1000000000D+01
 F   1 1.00       0.000000000000
      0.7060000000D+00  0.1000000000D+01
 ****

 AO basis set (Overlap normalization):
 Atom U1       Shell     1 S   3     bf    1 -     1          0.000000000000          0.000000000000          0.640620062451
      0.1209808200D+05  0.2884168448D-01
      0.1833757300D+04  0.2180092033D+00
      0.3516863200D+03  0.8395192276D+00
 Atom U1       Shell     2 S   3     bf    2 -     2          0.000000000000          0.000000000000          0.640620062451
      0.6090582200D+02  0.9338504807D-01
      0.3551508600D+02 -0.4593840999D+00
      0.2089122700D+02  0.1355508280D+01
 Atom U1       Shell     3 S   1     bf    3 -     3          0.000000000000          0.000000000000          0.640620062451
      0.1043142600D+03  0.1000000000D+01
 Atom U1       Shell     4 S   1     bf    4 -     4          0.000000000000          0.000000000000          0.640620062451
      0.1018464700D+02  0.1000000000D+01
 Atom U1       Shell     5 S   1     bf    5 -     5          0.000000000000          0.000000000000          0.640620062451
      0.2851851000D+01  0.1000000000D+01
 Atom U1       Shell     6 S   1     bf    6 -     6          0.000000000000          0.000000000000          0.640620062451
      0.1531616000D+01  0.1000000000D+01
 Atom U1       Shell     7 S   1     bf    7 -     7          0.000000000000          0.000000000000          0.640620062451
      0.6162030000D+00  0.1000000000D+01
 Atom U1       Shell     8 S   1     bf    8 -     8          0.000000000000          0.000000000000          0.640620062451
      0.2794940000D+00  0.1000000000D+01
 Atom U1       Shell     9 S   1     bf    9 -     9          0.000000000000          0.000000000000          0.640620062451
      0.5725300000D-01  0.1000000000D+01
 Atom U1       Shell    10 S   1     bf   10 -    10          0.000000000000          0.000000000000          0.640620062451
      0.2344300000D-01  0.1000000000D+01
 Atom U1       Shell    11 P   5     bf   11 -    13          0.000000000000          0.000000000000          0.640620062451
      0.2906845100D+04  0.2490724940D-02
      0.6944005300D+03  0.2071830291D-01
      0.2246347900D+03  0.9662880620D-01
      0.8052052600D+02  0.3141426831D+00
      0.2408021100D+02  0.7137059101D+00
 Atom U1       Shell    12 P   1     bf   14 -    16          0.000000000000          0.000000000000          0.640620062451
      0.1407758000D+02  0.1000000000D+01
 Atom U1       Shell    13 P   1     bf   17 -    19          0.000000000000          0.000000000000          0.640620062451
      0.8265846000D+01  0.1000000000D+01
 Atom U1       Shell    14 P   1     bf   20 -    22          0.000000000000          0.000000000000          0.640620062451
      0.3423607000D+01  0.1000000000D+01
 Atom U1       Shell    15 P   1     bf   23 -    25          0.000000000000          0.000000000000          0.640620062451
      0.1708417000D+01  0.1000000000D+01
 Atom U1       Shell    16 P   1     bf   26 -    28          0.000000000000          0.000000000000          0.640620062451
      0.6550460000D+00  0.1000000000D+01
 Atom U1       Shell    17 P   1     bf   29 -    31          0.000000000000          0.000000000000          0.640620062451
      0.2837550000D+00  0.1000000000D+01
 Atom U1       Shell    18 P   1     bf   32 -    34          0.000000000000          0.000000000000          0.640620062451
      0.1018140000D+00  0.1000000000D+01
 Atom U1       Shell    19 P   1     bf   35 -    37          0.000000000000          0.000000000000          0.640620062451
      0.3053500000D-01  0.1000000000D+01
 Atom U1       Shell    20 D   6     bf   38 -    42          0.000000000000          0.000000000000          0.640620062451
      0.4490195300D+03  0.1244413406D-03
      0.1563569500D+03  0.8014022332D-03
      0.6024243900D+02  0.4422645243D-02
      0.1777231700D+02  0.6317886860D-01
      0.1045430400D+02 -0.2224463627D+00
      0.3583433000D+01  0.1107027677D+01
 Atom U1       Shell    21 D   1     bf   43 -    47          0.000000000000          0.000000000000          0.640620062451
      0.1763724000D+01  0.1000000000D+01
 Atom U1       Shell    22 D   1     bf   48 -    52          0.000000000000          0.000000000000          0.640620062451
      0.7840300000D+00  0.1000000000D+01
 Atom U1       Shell    23 D   1     bf   53 -    57          0.000000000000          0.000000000000          0.640620062451
      0.2761270000D+00  0.1000000000D+01
 Atom U1       Shell    24 D   1     bf   58 -    62          0.000000000000          0.000000000000          0.640620062451
      0.8698000000D-01  0.1000000000D+01
 Atom U1       Shell    25 F   5     bf   63 -    69          0.000000000000          0.000000000000          0.640620062451
      0.1052879300D+03  0.5015876177D-03
      0.3510118100D+02  0.5077474656D-02
      0.1456413800D+02  0.2035609748D-01
      0.4651885000D+01  0.3012803625D+00
      0.2255973000D+01  0.7475437460D+00
 Atom U1       Shell    26 F   1     bf   70 -    76          0.000000000000          0.000000000000          0.640620062451
      0.1010274000D+01  0.1000000000D+01
 Atom U1       Shell    27 F   1     bf   77 -    83          0.000000000000          0.000000000000          0.640620062451
      0.4116800000D+00  0.1000000000D+01
 Atom U1       Shell    28 F   1     bf   84 -    90          0.000000000000          0.000000000000          0.640620062451
      0.1441200000D+00  0.1000000000D+01
 Atom U1       Shell    29 G   4     bf   91 -    99          0.000000000000          0.000000000000          0.640620062451
      0.1052879300D+03  0.1132460043D-02
      0.3510118100D+02  0.1513528715D-01
      0.1456413800D+02  0.1648266662D+00
      0.4651885000D+01  0.9155402153D+00
 Atom U1       Shell    30 G   1     bf  100 -   108          0.000000000000          0.000000000000          0.640620062451
      0.2255973000D+01  0.1000000000D+01
 Atom U1       Shell    31 G   1     bf  109 -   117          0.000000000000          0.000000000000          0.640620062451
      0.1010274000D+01  0.1000000000D+01
 Atom O2       Shell    32 S   6     bf  118 -   118          0.000000000000          3.291603826821          1.091182252383
      0.2703238263D+05  0.5722733521D-03
      0.4052387139D+04  0.4435323349D-02
      0.9223272271D+03  0.2302010771D-01
      0.2612407099D+03  0.9282249067D-01
      0.8535464135D+02  0.2937850001D+00
      0.3103503524D+02  0.6740160450D+00
 Atom O2       Shell    33 S   2     bf  119 -   119          0.000000000000          3.291603826821          1.091182252383
      0.1226086073D+02  0.6383993703D+00
      0.4998707601D+01  0.3953458713D+00
 Atom O2       Shell    34 S   1     bf  120 -   120          0.000000000000          3.291603826821          1.091182252383
      0.1170310816D+01  0.1000000000D+01
 Atom O2       Shell    35 S   1     bf  121 -   121          0.000000000000          3.291603826821          1.091182252383
      0.4647474099D+00  0.1000000000D+01
 Atom O2       Shell    36 S   1     bf  122 -   122          0.000000000000          3.291603826821          1.091182252383
      0.1850453636D+00  0.1000000000D+01
 Atom O2       Shell    37 P   4     bf  123 -   125          0.000000000000          3.291603826821          1.091182252383
      0.6327495480D+02  0.1201833222D-01
      0.1462704938D+02  0.8300542179D-01
      0.4450122346D+01  0.3199174393D+00
      0.1527579965D+01  0.7071554292D+00
 Atom O2       Shell    38 P   1     bf  126 -   128          0.000000000000          3.291603826821          1.091182252383
      0.5293511794D+00  0.1000000000D+01
 Atom O2       Shell    39 P   1     bf  129 -   131          0.000000000000          3.291603826821          1.091182252383
      0.1747842127D+00  0.1000000000D+01
 Atom O2       Shell    40 D   1     bf  132 -   136          0.000000000000          3.291603826821          1.091182252383
      0.2314000000D+01  0.1000000000D+01
 Atom O2       Shell    41 D   1     bf  137 -   141          0.000000000000          3.291603826821          1.091182252383
      0.6450000000D+00  0.1000000000D+01
 Atom O2       Shell    42 F   1     bf  142 -   148          0.000000000000          3.291603826821          1.091182252383
      0.1428000000D+01  0.1000000000D+01
 Atom O3       Shell    43 S   6     bf  149 -   149         -0.000000000000         -3.291603826821          1.091182252383
      0.2703238263D+05  0.5722733521D-03
      0.4052387139D+04  0.4435323349D-02
      0.9223272271D+03  0.2302010771D-01
      0.2612407099D+03  0.9282249067D-01
      0.8535464135D+02  0.2937850001D+00
      0.3103503524D+02  0.6740160450D+00
 Atom O3       Shell    44 S   2     bf  150 -   150         -0.000000000000         -3.291603826821          1.091182252383
      0.1226086073D+02  0.6383993703D+00
      0.4998707601D+01  0.3953458713D+00
 Atom O3       Shell    45 S   1     bf  151 -   151         -0.000000000000         -3.291603826821          1.091182252383
      0.1170310816D+01  0.1000000000D+01
 Atom O3       Shell    46 S   1     bf  152 -   152         -0.000000000000         -3.291603826821          1.091182252383
      0.4647474099D+00  0.1000000000D+01
 Atom O3       Shell    47 S   1     bf  153 -   153         -0.000000000000         -3.291603826821          1.091182252383
      0.1850453636D+00  0.1000000000D+01
 Atom O3       Shell    48 P   4     bf  154 -   156         -0.000000000000         -3.291603826821          1.091182252383
      0.6327495480D+02  0.1201833222D-01
      0.1462704938D+02  0.8300542179D-01
      0.4450122346D+01  0.3199174393D+00
      0.1527579965D+01  0.7071554292D+00
 Atom O3       Shell    49 P   1     bf  157 -   159         -0.000000000000         -3.291603826821          1.091182252383
      0.5293511794D+00  0.1000000000D+01
 Atom O3       Shell    50 P   1     bf  160 -   162         -0.000000000000         -3.291603826821          1.091182252383
      0.1747842127D+00  0.1000000000D+01
 Atom O3       Shell    51 D   1     bf  163 -   167         -0.000000000000         -3.291603826821          1.091182252383
      0.2314000000D+01  0.1000000000D+01
 Atom O3       Shell    52 D   1     bf  168 -   172         -0.000000000000         -3.291603826821          1.091182252383
      0.6450000000D+00  0.1000000000D+01
 Atom O3       Shell    53 F   1     bf  173 -   179         -0.000000000000         -3.291603826821          1.091182252383
      0.1428000000D+01  0.1000000000D+01
 Atom Cl4      Shell    54 S   7     bf  180 -   180          3.765182622958         -0.000000000000         -2.246940052460
      0.6950799094D+05  0.5145738965D-03
      0.1042615688D+05  0.3978134481D-02
      0.2373233406D+04  0.2045617867D-01
      0.6715642007D+03  0.8014810289D-01
      0.2184199979D+03  0.2345477032D+00
      0.7757224971D+02  0.4454336858D+00
      0.2888881528D+02  0.3546684250D+00
 Atom Cl4      Shell    55 S   3     bf  181 -   181          3.765182622958         -0.000000000000         -2.246940052460
      0.1271052718D+03  0.1129368805D+00
      0.3933958296D+02  0.4837351421D+00
      0.7674067999D+01 -0.1229229739D+01
 Atom Cl4      Shell    56 S   2     bf  182 -   182          3.765182622958         -0.000000000000         -2.246940052460
      0.3874562763D+01  0.6729682164D+00
      0.1838583257D+01  0.3495605141D+00
 Atom Cl4      Shell    57 S   1     bf  183 -   183          3.765182622958         -0.000000000000         -2.246940052460
      0.5022905754D+00  0.1000000000D+01
 Atom Cl4      Shell    58 S   1     bf  184 -   184          3.765182622958         -0.000000000000         -2.246940052460
      0.1796272342D+00  0.1000000000D+01
 Atom Cl4      Shell    59 P   5     bf  185 -   187          3.765182622958         -0.000000000000         -2.246940052460
      0.6665042328D+03  0.3350250820D-02
      0.1576424169D+03  0.2676397041D-01
      0.5026252098D+02  0.1236268236D+00
      0.1853607811D+02  0.3584578792D+00
      0.7294053278D+01  0.6167729635D+00
 Atom Cl4      Shell    60 P   1     bf  188 -   190          3.765182622958         -0.000000000000         -2.246940052460
      0.2943324899D+01  0.1000000000D+01
 Atom Cl4      Shell    61 P   1     bf  191 -   193          3.765182622958         -0.000000000000         -2.246940052460
      0.1040497082D+01  0.1000000000D+01
 Atom Cl4      Shell    62 P   1     bf  194 -   196          3.765182622958         -0.000000000000         -2.246940052460
      0.3845641508D+00  0.1000000000D+01
 Atom Cl4      Shell    63 P   1     bf  197 -   199          3.765182622958         -0.000000000000         -2.246940052460
      0.1306964273D+00  0.1000000000D+01
 Atom Cl4      Shell    64 D   2     bf  200 -   204          3.765182622958         -0.000000000000         -2.246940052460
      0.4610000000D+01  0.1826583505D+00
      0.1011000000D+01  0.9132917523D+00
 Atom Cl4      Shell    65 D   1     bf  205 -   209          3.765182622958         -0.000000000000         -2.246940052460
      0.3390000000D+00  0.1000000000D+01
 Atom Cl4      Shell    66 F   1     bf  210 -   216          3.765182622958         -0.000000000000         -2.246940052460
      0.7060000000D+00  0.1000000000D+01
 Atom Cl5      Shell    67 S   7     bf  217 -   217         -3.765182622958          0.000000000000         -2.246940052460
      0.6950799094D+05  0.5145738965D-03
      0.1042615688D+05  0.3978134481D-02
      0.2373233406D+04  0.2045617867D-01
      0.6715642007D+03  0.8014810289D-01
      0.2184199979D+03  0.2345477032D+00
      0.7757224971D+02  0.4454336858D+00
      0.2888881528D+02  0.3546684250D+00
 Atom Cl5      Shell    68 S   3     bf  218 -   218         -3.765182622958          0.000000000000         -2.246940052460
      0.1271052718D+03  0.1129368805D+00
      0.3933958296D+02  0.4837351421D+00
      0.7674067999D+01 -0.1229229739D+01
 Atom Cl5      Shell    69 S   2     bf  219 -   219         -3.765182622958          0.000000000000         -2.246940052460
      0.3874562763D+01  0.6729682164D+00
      0.1838583257D+01  0.3495605141D+00
 Atom Cl5      Shell    70 S   1     bf  220 -   220         -3.765182622958          0.000000000000         -2.246940052460
      0.5022905754D+00  0.1000000000D+01
 Atom Cl5      Shell    71 S   1     bf  221 -   221         -3.765182622958          0.000000000000         -2.246940052460
      0.1796272342D+00  0.1000000000D+01
 Atom Cl5      Shell    72 P   5     bf  222 -   224         -3.765182622958          0.000000000000         -2.246940052460
      0.6665042328D+03  0.3350250820D-02
      0.1576424169D+03  0.2676397041D-01
      0.5026252098D+02  0.1236268236D+00
      0.1853607811D+02  0.3584578792D+00
      0.7294053278D+01  0.6167729635D+00
 Atom Cl5      Shell    73 P   1     bf  225 -   227         -3.765182622958          0.000000000000         -2.246940052460
      0.2943324899D+01  0.1000000000D+01
 Atom Cl5      Shell    74 P   1     bf  228 -   230         -3.765182622958          0.000000000000         -2.246940052460
      0.1040497082D+01  0.1000000000D+01
 Atom Cl5      Shell    75 P   1     bf  231 -   233         -3.765182622958          0.000000000000         -2.246940052460
      0.3845641508D+00  0.1000000000D+01
 Atom Cl5      Shell    76 P   1     bf  234 -   236         -3.765182622958          0.000000000000         -2.246940052460
      0.1306964273D+00  0.1000000000D+01
 Atom Cl5      Shell    77 D   2     bf  237 -   241         -3.765182622958          0.000000000000         -2.246940052460
      0.4610000000D+01  0.1826583505D+00
      0.1011000000D+01  0.9132917523D+00
 Atom Cl5      Shell    78 D   1     bf  242 -   246         -3.765182622958          0.000000000000         -2.246940052460
      0.3390000000D+00  0.1000000000D+01
 Atom Cl5      Shell    79 F   1     bf  247 -   253         -3.765182622958          0.000000000000         -2.246940052460
      0.7060000000D+00  0.1000000000D+01
 Effective core potential in the form of general ECP input:
      1 0
 U1-ECP   5 60
 H component
  1
  2        1.0000000        0.00000000    0.00000000
 S-H projection
  1
  2       16.4140387      536.51662778    0.00000000
 P-H projection
  1
  2        9.0605561      169.54492465    0.00000000
 D-H projection
  1
  2        8.8318320      142.61559837    0.00000000
 F-H projection
  1
  2        7.0185163       60.39307602    0.00000000
 G-H projection
  1
  2       12.8040884      -60.12998958    0.00000000
 
 There are   118 symmetry adapted cartesian basis functions of A1  symmetry.
 There are    42 symmetry adapted cartesian basis functions of A2  symmetry.
 There are    75 symmetry adapted cartesian basis functions of B1  symmetry.
 There are    73 symmetry adapted cartesian basis functions of B2  symmetry.
 There are    92 symmetry adapted basis functions of A1  symmetry.
 There are    37 symmetry adapted basis functions of A2  symmetry.
 There are    63 symmetry adapted basis functions of B1  symmetry.
 There are    61 symmetry adapted basis functions of B2  symmetry.
   253 basis functions,   523 primitive gaussians,   308 cartesian basis functions
    41 alpha electrons       41 beta electrons
       nuclear repulsion energy       521.9789722579 Hartrees.
 IExCor= 1009 DFT=T Ex+Corr=PBE1PBE ExCW=0 ScaHFX=  0.250000
 ScaDFX=  0.750000  0.750000  1.000000  1.000000 ScalE2=  1.000000  1.000000
 IRadAn=      5 IRanWt=     -1 IRanGd=            0 ICorTp=0 IEmpDi=141
 NAtoms=    5 NActive=    5 NUniq=    3 SFac= 2.78D+00 NAtFMM=   60 NAOKFM=F Big=F
 Integral buffers will be    131072 words long.
 Regular integral format.
 Two-electron integral symmetry is turned on.
 R6Disp:  Grimme-D3(BJ) Dispersion energy=       -0.0056303056 Hartrees.
 Nuclear repulsion after empirical dispersion term =      521.9733419523 Hartrees.
 Leave Link  301 at Wed Jan 12 19:59:36 2022, MaxMem=  1048576000 cpu:               1.0 elap:               0.9
 (Enter /home/pcmt/gaussian/g16.C.01/g16/l302.exe)
 NPDir=0 NMtPBC=     1 NCelOv=     1 NCel=       1 NClECP=     1 NCelD=      1
         NCelK=      1 NCelE2=     1 NClLst=     1 CellRange=     0.0.
 One-electron integrals computed using PRISM.
 One-electron integral symmetry used in STVInt
   4 Symmetry operations used in ECPInt.
 ECPInt:  NShTT=    3160 NPrTT=   10748 LenC2=    3031 LenP2D=    7897.
 LDataN:  DoStor=T MaxTD1= 9 Len=  602
 NBasis=   253 RedAO= T EigKep=  8.84D-04  NBF=    92    37    63    61
 NBsUse=   253 1.00D-06 EigRej= -1.00D+00 NBFU=    92    37    63    61
 Precomputing XC quadrature grid using
 IXCGrd= 4 IRadAn=           5 IRanWt=          -1 IRanGd=           0 AccXCQ= 0.00D+00.
 Defaulting to unpruned grid for atomic number  92.
 Generated NRdTot=       0 NPtTot=           0 NUsed=           0 NTot=          32
 NSgBfM=   303   303   303   303   303 MxSgAt=     5 MxSgA2=     5.
 Leave Link  302 at Wed Jan 12 19:59:39 2022, MaxMem=  1048576000 cpu:               6.4 elap:               2.9
 (Enter /home/pcmt/gaussian/g16.C.01/g16/l303.exe)
 DipDrv:  MaxL=1.
 Leave Link  303 at Wed Jan 12 19:59:40 2022, MaxMem=  1048576000 cpu:               0.7 elap:               0.4
 (Enter /home/pcmt/gaussian/g16.C.01/g16/l308.exe)
 Leave Link  308 at Wed Jan 12 19:59:40 2022, MaxMem=  1048576000 cpu:               0.9 elap:               0.6
 (Enter /home/pcmt/gaussian/g16.C.01/g16/l401.exe)
 Initial guess from the checkpoint file:  "tddft-uo2_cl2.pbe0-d3.freq.chk"
 B after Tr=    -0.000000   -0.000000    0.000000
         Rot=    1.000000   -0.000000    0.000000   -0.000000 Ang=   0.00 deg.
 Guess basis will be translated and rotated to current coordinates.
 JPrj=2 DoOrth=T DoCkMO=T.
 Initial guess orbital symmetries:
       Occupied  (A1) (B1) (B2) (A1) (A1) (A1) (B1) (A1) (B1) (B2)
                 (B1) (A1) (B1) (A1) (B2) (A2) (A1) (B1) (B2) (A2)
                 (A1) (A1) (B2) (A1) (B1) (A1) (A1) (B1) (B2) (B2)
                 (A2) (A1) (B1) (A1) (B2) (A1) (B1) (A1) (B1) (A2)
                 (B2)
       Virtual   (A1) (B1) (B2) (A2) (A1) (B1) (A1) (A1) (B1) (B2)
                 (A1) (B2) (B1) (A1) (A2) (B2) (B2) (A1) (A1) (B1)
                 (A2) (B1) (A1) (B2) (A1) (B2) (B1) (A1) (A2) (B1)
                 (A1) (B2) (A2) (B1) (A1) (B2) (A2) (B1) (A1) (B1)
                 (A1) (B2) (A1) (B2) (B1) (A1) (A2) (A1) (B2) (B1)
                 (A1) (B1) (A2) (B2) (A1) (B2) (A1) (B1) (A1) (A1)
                 (B1) (B1) (A2) (A1) (B2) (B2) (A1) (B1) (A1) (B1)
                 (B2) (A2) (B2) (A2) (A1) (A1) (A2) (A2) (B2) (B1)
                 (B2) (A1) (B1) (B1) (A1) (B2) (A1) (B2) (B1) (A2)
                 (B1) (A1) (A2) (B2) (A1) (B1) (A2) (B2) (A1) (B1)
                 (B1) (B2) (A1) (A2) (B1) (A1) (A1) (B2) (B2) (A1)
                 (B1) (A2) (A1) (B1) (A2) (A1) (B2) (B1) (B2) (A2)
                 (A1) (B1) (A1) (B2) (A2) (A1) (A1) (B1) (B2) (A1)
                 (B2) (B2) (B2) (A2) (B1) (A1) (A1) (B1) (A1) (B1)
                 (A2) (A2) (B2) (B1) (A1) (B2) (A1) (B2) (A2) (A1)
                 (B1) (B2) (A1) (B1) (A1) (B1) (A2) (B2) (A1) (A2)
                 (B1) (B2) (A1) (A2) (A1) (B2) (B1) (B2) (A1) (B1)
                 (A1) (B2) (A2) (A1) (B2) (A1) (A2) (B2) (B1) (A1)
                 (A1) (A2) (B1) (B2) (A1) (B1) (A2) (B2) (B1) (A1)
                 (A1) (B1) (A2) (B2) (A1) (A1) (B1) (B2) (B1) (A1)
                 (A1) (A1) (B2) (A1) (B1) (B2) (A1) (A1) (B1) (B2)
                 (A1) (A1)
 The electronic state of the initial guess is 1-A1.
 Leave Link  401 at Wed Jan 12 19:59:42 2022, MaxMem=  1048576000 cpu:               2.7 elap:               1.7
 (Enter /home/pcmt/gaussian/g16.C.01/g16/l502.exe)
 Keep R1 ints in memory in symmetry-blocked form, NReq=646035938.
 FoFCou: FMM=F IPFlag=           0 FMFlag=           0 FMFlg1=           0
         NFxFlg=           0 DoJE=F BraDBF=F KetDBF=F FulRan=T
         wScrn=  0.000000 ICntrl=       600 IOpCl=  0 I1Cent=           0 NGrid=           0
         NMat0=    1 NMatS0=  32131 NMatT0=    0 NMatD0=    1 NMtDS0=    0 NMtDT0=    0
 Petite list used in FoFCou.
 Closed shell SCF:
 Using DIIS extrapolation, IDIIS=  1040.
 NGot=  1048576000 LenX=   918564064 LenY=   918468759
 Requested convergence on RMS density matrix=1.00D-08 within 100 cycles.
 Requested convergence on MAX density matrix=1.00D-06.
 Requested convergence on             energy=1.00D-06.
 No special actions if energy rises.

 Cycle   1  Pass 1  IDiag  1:
 Defaulting to unpruned grid for atomic number  92.
 Defaulting to unpruned grid for atomic number  92.
 Defaulting to unpruned grid for atomic number  92.
 Defaulting to unpruned grid for atomic number  92.
 E= -1547.64445031277    
 DIIS: error= 3.53D-08 at cycle   1 NSaved=   1.
 NSaved= 1 IEnMin= 1 EnMin= -1547.64445031277     IErMin= 1 ErrMin= 3.53D-08
 ErrMax= 3.53D-08  0.00D+00 EMaxC= 1.00D-01 BMatC= 4.32D-13 BMatP= 4.32D-13
 IDIUse=1 WtCom= 1.00D+00 WtEn= 0.00D+00
 Coeff-Com:  0.100D+01
 Coeff:      0.100D+01
 Gap=     0.165 Goal=   None    Shift=    0.000
 RMSDP=6.12D-09 MaxDP=4.09D-07              OVMax= 7.47D-07

 SCF Done:  E(RPBE1PBE) =  -1547.64445031     A.U. after    1 cycles
            NFock=  1  Conv=0.61D-08     -V/T= 2.2702
 KE= 1.218413566299D+03 PE=-4.557969157409D+03 EE= 1.269937798845D+03
 Leave Link  502 at Wed Jan 12 20:06:53 2022, MaxMem=  1048576000 cpu:            1031.2 elap:             431.1
 (Enter /home/pcmt/gaussian/g16.C.01/g16/l801.exe)
 DoSCS=F DFT=T ScalE2(SS,OS)=  1.000000  1.000000
 Range of M.O.s used for correlation:    22   253
 NBasis=   253 NAE=    41 NBE=    41 NFC=    21 NFV=     0
 NROrb=    232 NOA=    20 NOB=    20 NVA=   212 NVB=   212

 **** Warning!!: The largest alpha MO coefficient is  0.10633443D+02

 Leave Link  801 at Wed Jan 12 20:06:54 2022, MaxMem=  1048576000 cpu:               0.6 elap:               0.3
 (Enter /home/pcmt/gaussian/g16.C.01/g16/l914.exe)
 RHF ground state
 Keep R1, R2, and R3 ints in memory in symmetry-blocked form, NReq=646036278.
 FoFCou: FMM=F IPFlag=           0 FMFlag=           0 FMFlg1=           0
         NFxFlg=           0 DoJE=F BraDBF=F KetDBF=F FulRan=T
         wScrn=  0.000000 ICntrl=       600 IOpCl=  0 I1Cent=           0 NGrid=           0
         NMat0=    1 NMatS0=  32131 NMatT0=    0 NMatD0=    1 NMtDS0=    0 NMtDT0=    0
 Petite list used in FoFCou.
 MDV=  1048576000 DFT=T DoStab=F Mixed=T DoRPA=T DoScal=F NonHer=T
 Making orbital integer symmetry assigments:
 Orbital symmetries:
       Occupied  (A1) (B1) (B2) (A1) (A1) (A1) (B1) (A1) (B1) (B2)
                 (B1) (A1) (B1) (A1) (B2) (A2) (A1) (B1) (B2) (A2)
                 (A1) (A1) (B2) (A1) (B1) (A1) (A1) (B1) (B2) (B2)
                 (A2) (A1) (B1) (A1) (B2) (A1) (B1) (A1) (B1) (A2)
                 (B2)
       Virtual   (A1) (B1) (B2) (A2) (A1) (B1) (A1) (A1) (B1) (B2)
                 (A1) (B2) (B1) (A1) (A2) (B2) (B2) (A1) (A1) (B1)
                 (A2) (B1) (A1) (B2) (A1) (B2) (B1) (A1) (A2) (B1)
                 (A1) (B2) (A2) (B1) (A1) (B2) (A2) (B1) (A1) (B1)
                 (A1) (B2) (A1) (B2) (B1) (A1) (A2) (A1) (B2) (B1)
                 (A1) (B1) (A2) (B2) (A1) (B2) (A1) (B1) (A1) (A1)
                 (B1) (B1) (A2) (A1) (B2) (B2) (A1) (B1) (A1) (B1)
                 (B2) (A2) (B2) (A2) (A1) (A1) (A2) (A2) (B2) (B1)
                 (B2) (A1) (B1) (B1) (A1) (B2) (A1) (B2) (B1) (A2)
                 (B1) (A1) (A2) (B2) (A1) (B1) (A2) (B2) (A1) (B1)
                 (B1) (B2) (A1) (A2) (B1) (A1) (A1) (B2) (B2) (A1)
                 (B1) (A2) (A1) (B1) (A2) (A1) (B2) (B1) (B2) (A2)
                 (A1) (B1) (A1) (B2) (A2) (A1) (A1) (B1) (B2) (A1)
                 (B2) (B2) (B2) (A2) (B1) (A1) (A1) (B1) (A1) (B1)
                 (A2) (A2) (B2) (B1) (A1) (B2) (A1) (B2) (A2) (A1)
                 (B1) (B2) (A1) (B1) (A1) (B1) (A2) (B2) (A1) (A2)
                 (B1) (B2) (A1) (A2) (A1) (B2) (B1) (B2) (A1) (B1)
                 (A1) (B2) (A2) (A1) (B2) (A1) (A2) (B2) (B1) (A1)
                 (A1) (A2) (B1) (B2) (A1) (B1) (A2) (B2) (B1) (A1)
                 (A1) (B1) (A2) (B2) (A1) (A1) (B1) (B2) (B1) (A1)
                 (A1) (A1) (B2) (A1) (B1) (B2) (A1) (A1) (B1) (B2)
                 (A1) (A1)
    16 initial guesses have been made.
 Convergence on wavefunction:    0.000001000000000
 Davidson Disk Diagonalization:  ConvIn= 1.00D-06 SkipCon=T Conv= 1.00D-06.
 Max sub-space:  2000 roots to seek:    16 dimension of matrix:         8480
 Iteration     1 Dimension    16 NMult     0 NNew     16
 CISAX will form    16 AO SS matrices at one time.
 NMat=    16 NSing=     0 JSym2X=-1.
 Defaulting to unpruned grid for atomic number  92.
 Defaulting to unpruned grid for atomic number  92.
 Defaulting to unpruned grid for atomic number  92.
 Defaulting to unpruned grid for atomic number  92.
 New state      1 was old state      2
 New state      2 was old state      1
 New state      3 was old state      4
 New state      4 was old state      3
 Excitation Energies [eV] at current iteration:
 Root      1 :     2.757256550712396
 Root      2 :     2.762768792780379
 Root      3 :     2.858800750221535
 Root      4 :     2.859220955118980
 Root      5 :     3.317449190037431
 Root      6 :     3.333263595517639
 Root      7 :     3.349085515666145
 Root      8 :     3.375655783970867
 Root      9 :     3.440414768817823
 Root     10 :     3.486963635801015
 Root     11 :     3.561156761248033
 Root     12 :     3.571290113480246
 Root     13 :     3.677010273286568
 Root     14 :     3.693379303164461
 Root     15 :     3.857965756227549
 Root     16 :     3.892852492975687
 Iteration     2 Dimension    24 NMult    16 NNew      8
 CISAX will form     8 AO SS matrices at one time.
 NMat=     8 NSing=     0 JSym2X=-1.
 New state      1 was old state      4
 Root      1 not converged, maximum delta is    0.480389094228203
 Root      2 not converged, maximum delta is    0.376765910211179
 Root      3 not converged, maximum delta is    0.418892471762385
 New state      4 was old state      1
 Root      4 not converged, maximum delta is    0.356657033222524
 Excitation Energies [eV] at current iteration:
 Root      1 :     2.165515502990373   Change is   -0.693705452128607
 Root      2 :     2.278842863204150   Change is   -0.483925929576229
 Root      3 :     2.288262909382829   Change is   -0.570537840838706
 Root      4 :     2.292517754085107   Change is   -0.464738796627289
 Iteration     3 Dimension    32 NMult    24 NNew      8
 CISAX will form     8 AO SS matrices at one time.
 NMat=     8 NSing=     0 JSym2X=-1.
 Root      1 not converged, maximum delta is    0.017851733445778
 Root      2 not converged, maximum delta is    0.035799104424482
 Root      3 not converged, maximum delta is    0.035775898264310
 Root      4 not converged, maximum delta is    0.046714203050430
 Excitation Energies [eV] at current iteration:
 Root      1 :     2.141945846280436   Change is   -0.023569656709937
 Root      2 :     2.245010696125441   Change is   -0.033832167078709
 Root      3 :     2.248125143503050   Change is   -0.040137765879779
 Root      4 :     2.252377400034007   Change is   -0.040140354051100
 Iteration     4 Dimension    40 NMult    32 NNew      8
 CISAX will form     8 AO SS matrices at one time.
 NMat=     8 NSing=     0 JSym2X=-1.
 Root      1 not converged, maximum delta is    0.005004451720906
 Root      2 not converged, maximum delta is    0.003231822430818
 Root      3 not converged, maximum delta is    0.006718436721301
 Root      4 not converged, maximum delta is    0.005017160386802
 Excitation Energies [eV] at current iteration:
 Root      1 :     2.141180222021991   Change is   -0.000765624258445
 Root      2 :     2.244087891984071   Change is   -0.000922804141370
 Root      3 :     2.246872761116872   Change is   -0.001252382386177
 Root      4 :     2.251099792200313   Change is   -0.001277607833694
 Iteration     5 Dimension    48 NMult    40 NNew      8
 CISAX will form     8 AO SS matrices at one time.
 NMat=     8 NSing=     0 JSym2X=-1.
 Root      1 not converged, maximum delta is    0.001021489028482
 Root      2 not converged, maximum delta is    0.001308549277801
 Root      3 not converged, maximum delta is    0.002000508570263
 Root      4 not converged, maximum delta is    0.001072345223101
 Excitation Energies [eV] at current iteration:
 Root      1 :     2.141135405235015   Change is   -0.000044816786977
 Root      2 :     2.244045777734701   Change is   -0.000042114249370
 Root      3 :     2.246787288562968   Change is   -0.000085472553904
 Root      4 :     2.251056543706240   Change is   -0.000043248494073
 Iteration     6 Dimension    56 NMult    48 NNew      8
 CISAX will form     8 AO SS matrices at one time.
 NMat=     8 NSing=     0 JSym2X=-1.
 Root      1 not converged, maximum delta is    0.000506100408722
 Root      2 not converged, maximum delta is    0.000733190329161
 Root      3 not converged, maximum delta is    0.000701639025507
 Root      4 not converged, maximum delta is    0.000284524771877
 Excitation Energies [eV] at current iteration:
 Root      1 :     2.141132049866764   Change is   -0.000003355368251
 Root      2 :     2.244039893279437   Change is   -0.000005884455264
 Root      3 :     2.246781015781871   Change is   -0.000006272781097
 Root      4 :     2.251054504352929   Change is   -0.000002039353311
 Iteration     7 Dimension    64 NMult    56 NNew      8
 CISAX will form     8 AO SS matrices at one time.
 NMat=     8 NSing=     0 JSym2X=-1.
 Root      1 not converged, maximum delta is    0.000055200481971
 Root      2 not converged, maximum delta is    0.000098904400439
 Root      3 not converged, maximum delta is    0.000045584997558
 Root      4 not converged, maximum delta is    0.000068068165313
 Excitation Energies [eV] at current iteration:
 Root      1 :     2.141131904678657   Change is   -0.000000145188107
 Root      2 :     2.244039519120894   Change is   -0.000000374158543
 Root      3 :     2.246780813202398   Change is   -0.000000202579473
 Root      4 :     2.251054417812457   Change is   -0.000000086540472
 Iteration     8 Dimension    72 NMult    64 NNew      8
 CISAX will form     8 AO SS matrices at one time.
 NMat=     8 NSing=     0 JSym2X=-1.
 Root      1 not converged, maximum delta is    0.000017690616441
 Root      2 not converged, maximum delta is    0.000016404628287
 Root      3 not converged, maximum delta is    0.000008041041181
 Root      4 not converged, maximum delta is    0.000031117153120
 Excitation Energies [eV] at current iteration:
 Root      1 :     2.141131895979211   Change is   -0.000000008699446
 Root      2 :     2.244039498160215   Change is   -0.000000020960679
 Root      3 :     2.246780805086147   Change is   -0.000000008116250
 Root      4 :     2.251054406535217   Change is   -0.000000011277240
 Iteration     9 Dimension    80 NMult    72 NNew      8
 CISAX will form     8 AO SS matrices at one time.
 NMat=     8 NSing=     0 JSym2X=-1.
 Root      1 not converged, maximum delta is    0.000001979171245
 Root      2 not converged, maximum delta is    0.000003541646082
 Root      3 not converged, maximum delta is    0.000001434413715
 Root      4 not converged, maximum delta is    0.000004768680081
 Excitation Energies [eV] at current iteration:
 Root      1 :     2.141131895525427   Change is   -0.000000000453784
 Root      2 :     2.244039497387866   Change is   -0.000000000772349
 Root      3 :     2.246780804807376   Change is   -0.000000000278772
 Root      4 :     2.251054405757460   Change is   -0.000000000777757
 Iteration    10 Dimension    88 NMult    80 NNew      8
 CISAX will form     8 AO SS matrices at one time.
 NMat=     8 NSing=     0 JSym2X=-1.
 Root      1 has converged.
 Root      2 has converged.
 Root      3 has converged.
 Root      4 has converged.
 Excitation Energies [eV] at current iteration:
 Root      1 :     2.141131895506729   Change is   -0.000000000018698
 Root      2 :     2.244039497355299   Change is   -0.000000000032567
 Root      3 :     2.246780804800022   Change is   -0.000000000007354
 Root      4 :     2.251054405728866   Change is   -0.000000000028595
 Convergence achieved on expansion vectors.
 ***********************************************************************
 Excited states from <AA,BB:AA,BB> singles matrix:
 ***********************************************************************
 
 1PDM for each excited state written to RWF  633
 Ground to excited state transition densities written to RWF  633
 Ground to excited state transition electric dipole moments (Au):
       state          X           Y           Z        Dip. S.      Osc.
         1        -0.0000     -0.0000      0.0000      0.0000      0.0000
         2        -0.0000     -0.0000     -0.0000      0.0000      0.0000
         3         0.0000      0.0000      0.0000      0.0000      0.0000
         4         0.0000      0.0000     -0.0000      0.0000      0.0000
 Ground to excited state transition velocity dipole moments (Au):
       state          X           Y           Z        Dip. S.      Osc.
         1         0.0000      0.0000     -0.0000      0.0000      0.0000
         2         0.0000     -0.0000      0.0000      0.0000      0.0000
         3         0.0000      0.0000     -0.0000      0.0000      0.0000
         4         0.0000      0.0000     -0.0000      0.0000      0.0000
 Ground to excited state transition magnetic dipole moments (Au):
       state          X           Y           Z
         1        -0.0000      0.0000     -0.0000
         2         0.0000      0.0000     -0.0000
         3        -0.0000      0.0000      0.0000
         4         0.0000     -0.0000      0.0000
 Ground to excited state transition velocity quadrupole moments (Au):
       state          XX          YY          ZZ          XY          XZ          YZ
         1         0.0000      0.0000      0.0000     -0.0000     -0.0000      0.0000
         2        -0.0000     -0.0000      0.0000     -0.0000     -0.0000      0.0000
         3        -0.0000     -0.0000     -0.0000      0.0000     -0.0000     -0.0000
         4        -0.0000      0.0000     -0.0000      0.0000      0.0000     -0.0000
 <0|del|b> * <b|rxdel|0> + <0|del|b> * <b|delr+rdel|0>
 Rotatory Strengths (R) in cgs (10**-40 erg-esu-cm/Gauss)
       state          XX          YY          ZZ    R(velocity)    E-M Angle
         1         0.0000      0.0000     -0.0000     -0.0000       90.00
         2        -0.0000     -0.0000     -0.0000     -0.0000       90.00
         3         0.0000      0.0000      0.0000      0.0000       90.00
         4        -0.0000     -0.0000     -0.0000     -0.0000       90.00
 1/2[<0|r|b>*<b|rxdel|0> + (<0|rxdel|b>*<b|r|0>)*]
 Rotatory Strengths (R) in cgs (10**-40 erg-esu-cm/Gauss)
       state          XX          YY          ZZ     R(length)
         1        -0.0000      0.0000      0.0000     -0.0000
         2         0.0000      0.0000     -0.0000     -0.0000
         3         0.0000     -0.0000     -0.0000     -0.0000
         4        -0.0000      0.0000      0.0000      0.0000
  1/2[<0|del|b>*<b|r|0> + (<0|r|b>*<b|del|0>)*] (Au)
       state          X           Y           Z        Dip. S.   Osc.(frdel)
         1        -0.0000     -0.0000     -0.0000      0.0000      0.0000
         2        -0.0000      0.0000     -0.0000      0.0000      0.0000
         3         0.0000      0.0000     -0.0000      0.0000      0.0000
         4         0.0000      0.0000      0.0000     -0.0000     -0.0000

 Excitation energies and oscillator strengths:
 
 Excited State   1:      Triplet-A1     2.1411 eV  579.06 nm  f=0.0000  <S**2>=2.000
      35 -> 44        -0.42585
      41 -> 44         0.56571
 This state for optimization and/or second-order correction.
 Total Energy, E(TD-HF/TD-DFT) =  -1547.56576516    
 Copying the excited state density for this state as the 1-particle RhoCI density.
 
 Excited State   2:      Triplet-B2     2.2440 eV  552.50 nm  f=0.0000  <S**2>=2.000
      35 -> 42        -0.37294
      41 -> 42         0.59681
 
 Excited State   3:      Triplet-B1     2.2468 eV  551.83 nm  f=0.0000  <S**2>=2.000
      35 -> 45        -0.39327
      41 -> 45         0.58775
 
 Excited State   4:      Triplet-A2     2.2511 eV  550.78 nm  f=0.0000  <S**2>=2.000
      35 -> 43        -0.36574
      41 -> 43         0.60151
 SavETr:  write IOETrn=   770 NScale= 10 NData=  16 NLR=1 NState=    4 LETran=      82.
 The selected state is a triplet.
 CISGrd: IGrad=3 NXY=2 DFT=T
 CISAX will form     1 AO SS matrices at one time.
 NMat=     1 NSing=     0 JSym2X=-1.
 Leave Link  914 at Wed Jan 12 20:13:00 2022, MaxMem=  1048576000 cpu:            1315.3 elap:             365.4
 (Enter /home/pcmt/gaussian/g16.C.01/g16/l1002.exe)
 Minotr:  Closed shell wavefunction.
          Computing CIS/TDA/TD derivatives.
          Using Z-Vector for PSCF gradient.
          Skipping F1 and S1 gradient terms here.
          IDoAtm=11111
          Frozen-core window.
          Direct CPHF calculation.
          Differentiating once with respect to electric field.
                with respect to dipole field.
          Differentiating once with respect to nuclear coordinates.
          Requested convergence is 1.0D-10 RMS, and 1.0D-09 maximum.
          NewPWx=F KeepS1=T KeepF1=T KeepIn=T MapXYZ=F SortEE=F KeepMc=T.
 Keep R1 ints in memory in symmetry-blocked form, NReq=646037315.
 FoFCou: FMM=F IPFlag=           0 FMFlag=           0 FMFlg1=           0
         NFxFlg=           0 DoJE=F BraDBF=F KetDBF=F FulRan=T
         wScrn=  0.000000 ICntrl=       600 IOpCl=  0 I1Cent=           0 NGrid=           0
         NMat0=    1 NMatS0=  32131 NMatT0=    0 NMatD0=    1 NMtDS0=    0 NMtDT0=    0
 Petite list used in FoFCou.
 Two-electron integral symmetry used by symmetrizing perturbed Fock matrices.
          MDV=    1048576000 using IRadAn=       5.
          Solving linear equations separately, MaxMat=       0.
          There are     1 degrees of freedom in the 1st order CPHF.  IDoFFX=0 NUNeed=     1.
 Defaulting to unpruned grid for atomic number  92.
 Defaulting to unpruned grid for atomic number  92.
 Defaulting to unpruned grid for atomic number  92.
 Defaulting to unpruned grid for atomic number  92.
 LinEq1:  Iter=  0 NonCon=     1 RMS=2.64D-02 Max=1.04D+00 NDo=     1
 AX will form     1 AO Fock derivatives at one time.
 LinEq1:  Iter=  1 NonCon=     1 RMS=1.26D-02 Max=5.00D-01 NDo=     1
 LinEq1:  Iter=  2 NonCon=     1 RMS=1.02D-02 Max=3.89D-01 NDo=     1
 LinEq1:  Iter=  3 NonCon=     1 RMS=3.32D-03 Max=8.82D-02 NDo=     1
 LinEq1:  Iter=  4 NonCon=     1 RMS=1.31D-03 Max=3.07D-02 NDo=     1
 LinEq1:  Iter=  5 NonCon=     1 RMS=4.90D-04 Max=1.72D-02 NDo=     1
 LinEq1:  Iter=  6 NonCon=     1 RMS=2.09D-04 Max=4.97D-03 NDo=     1
 LinEq1:  Iter=  7 NonCon=     1 RMS=1.04D-04 Max=3.69D-03 NDo=     1
 LinEq1:  Iter=  8 NonCon=     1 RMS=3.78D-05 Max=1.01D-03 NDo=     1
 LinEq1:  Iter=  9 NonCon=     1 RMS=1.20D-05 Max=3.40D-04 NDo=     1
 LinEq1:  Iter= 10 NonCon=     1 RMS=4.87D-06 Max=1.39D-04 NDo=     1
 LinEq1:  Iter= 11 NonCon=     1 RMS=1.39D-06 Max=4.71D-05 NDo=     1
 LinEq1:  Iter= 12 NonCon=     1 RMS=3.12D-07 Max=1.06D-05 NDo=     1
 LinEq1:  Iter= 13 NonCon=     1 RMS=1.51D-07 Max=3.99D-06 NDo=     1
 LinEq1:  Iter= 14 NonCon=     1 RMS=3.71D-08 Max=9.67D-07 NDo=     1
 LinEq1:  Iter= 15 NonCon=     1 RMS=1.15D-08 Max=3.04D-07 NDo=     1
 LinEq1:  Iter= 16 NonCon=     1 RMS=2.62D-09 Max=5.76D-08 NDo=     1
 LinEq1:  Iter= 17 NonCon=     1 RMS=4.76D-10 Max=1.24D-08 NDo=     1
 LinEq1:  Iter= 18 NonCon=     1 RMS=6.53D-11 Max=1.26D-09 NDo=     1
 LinEq1:  Iter= 19 NonCon=     0 RMS=1.65D-11 Max=3.74D-10 NDo=     1
 Linear equations converged to 1.000D-10 1.000D-09 after    19 iterations.
          There are     1 degrees of freedom in the 1st order CPHF.  IDoFFX=0 NUNeed=     1.
 End of Minotr F.D. properties file   721 does not exist.
 End of Minotr F.D. properties file   722 does not exist.
 End of Minotr F.D. properties file   788 does not exist.
 Leave Link 1002 at Wed Jan 12 20:16:41 2022, MaxMem=  1048576000 cpu:             856.9 elap:             220.5
 (Enter /home/pcmt/gaussian/g16.C.01/g16/l1101.exe)
 Using compressed Sx but separate Hx and Fx, NAtomX=     5.
 Will process      6 centers per pass.
   4 Symmetry operations used in ECPInt.
 ECPInt:  NShTT=    3160 NPrTT=   10748 LenC2=    3031 LenP2D=    7897.
 LDataN:  DoStor=T MaxTD1=10 Len=  848
 Leave Link 1101 at Wed Jan 12 20:16:52 2022, MaxMem=  1048576000 cpu:              15.5 elap:              11.2
 (Enter /home/pcmt/gaussian/g16.C.01/g16/l1102.exe)
 Use density number 6.
 Symmetrizing basis deriv contribution to polar:
 IMax=3 JMax=2 DiffMx= 0.00D+00
 Leave Link 1102 at Wed Jan 12 20:16:53 2022, MaxMem=  1048576000 cpu:               0.8 elap:               0.4
 (Enter /home/pcmt/gaussian/g16.C.01/g16/l1110.exe)
 Forming Gx(P) for the SCF density, NAtomX=     5.
 Integral derivatives from FoFJK, PRISM(SPDF).
 Do as many integral derivatives as possible in FoFJK.
 G2DrvN: MDV=    1048575349.
 G2DrvN: will do     6 centers at a time, making    1 passes.
 Calling FoFCou, ICntrl=  3107 FMM=F I1Cent=   0 AccDes= 0.00D+00.
 FoFJK:  IHMeth= 1 ICntrl=    3107 DoSepK=F KAlg= 0 I1Cent=           0 FoldK=F
 IRaf=         0 NMat=       1 IRICut=       1 DoRegI=T DoRafI=F ISym2E= 1 IDoP0=0 IntGTp=1.
 FoFCou: FMM=F IPFlag=           0 FMFlag=      100000 FMFlg1=           0
         NFxFlg=           0 DoJE=F BraDBF=F KetDBF=F FulRan=T
         wScrn=  0.000000 ICntrl=      3107 IOpCl=  0 I1Cent=           0 NGrid=           0
         NMat0=    1 NMatS0=      1 NMatT0=    0 NMatD0=    1 NMtDS0=    0 NMtDT0=    0
 Petite list used in FoFCou.
 Defaulting to unpruned grid for atomic number  92.
 Defaulting to unpruned grid for atomic number  92.
 Defaulting to unpruned grid for atomic number  92.
 Defaulting to unpruned grid for atomic number  92.
 Forming Gx(P) for generalized density number  6 NAtomX=     5.
 Integral derivatives from FoFJK, PRISM(SPDF).
 Do as many integral derivatives as possible in FoFJK.
 G2DrvN: MDV=    1048575349.
 G2DrvN: will do     6 centers at a time, making    1 passes.
 Calling FoFCou, ICntrl=  3107 FMM=F I1Cent=   0 AccDes= 0.00D+00.
 Forming Gx(T) for CIS/TDA/TD state  1 NAtomX=     5.
 Integral derivatives from FoFJK, PRISM(SPDF).
 Do as many integral derivatives as possible in FoFJK.
 G2DrvN: MDV=    1048575349.
 G2DrvN: will do     6 centers at a time, making    1 passes.
 Calling FoFCou, ICntrl=  3107 FMM=F I1Cent=   0 AccDes= 0.00D+00.
 End of G2Drv F.D. properties file   721 does not exist.
 End of G2Drv F.D. properties file   722 does not exist.
 End of G2Drv F.D. properties file   788 does not exist.
 Leave Link 1110 at Wed Jan 12 20:21:39 2022, MaxMem=  1048576000 cpu:             708.9 elap:             285.4
 (Enter /home/pcmt/gaussian/g16.C.01/g16/l1002.exe)
 Minotr:  Closed shell wavefunction.
          IDoAtm=11111
          Frozen-core window.
          Direct CPHF calculation.
          Differentiating once with respect to electric field.
                with respect to dipole field.
          Differentiating once with respect to nuclear coordinates.
          Requested convergence is 1.0D-08 RMS, and 1.0D-07 maximum.
          Secondary convergence is 1.0D-12 RMS, and 1.0D-12 maximum.
          NewPWx=T KeepS1=T KeepF1=T KeepIn=T MapXYZ=F SortEE=F KeepMc=T.
 Defaulting to unpruned grid for atomic number  92.
         1512 words used for storage of precomputed grid.
 Keep R1 ints in memory in symmetry-blocked form, NReq=646038827.
 FoFCou: FMM=F IPFlag=           0 FMFlag=           0 FMFlg1=           0
         NFxFlg=           0 DoJE=F BraDBF=F KetDBF=F FulRan=T
         wScrn=  0.000000 ICntrl=       600 IOpCl=  0 I1Cent=           0 NGrid=           0
         NMat0=    1 NMatS0=  32131 NMatT0=    0 NMatD0=    1 NMtDS0=    0 NMtDT0=    0
 Petite list used in FoFCou.
          MDV=    1048576000 using IRadAn=       1.
          Solving linear equations simultaneously, MaxMat=       0.
 Defaulting to unpruned grid for atomic number  92.
 Defaulting to unpruned grid for atomic number  92.
 Defaulting to unpruned grid for atomic number  92.
 Defaulting to unpruned grid for atomic number  92.
          There are    18 degrees of freedom in the 1st order CPHF.  IDoFFX=6 NUNeed=    18.
     15 vectors produced by pass  0 Test12= 4.83D-14 5.56D-09 XBig12= 9.76D+01 4.80D+00.
 AX will form    15 AO Fock derivatives at one time.
     15 vectors produced by pass  1 Test12= 4.83D-14 5.56D-09 XBig12= 4.22D+01 2.01D+00.
     15 vectors produced by pass  2 Test12= 4.83D-14 5.56D-09 XBig12= 6.79D+00 5.61D-01.
     15 vectors produced by pass  3 Test12= 4.83D-14 5.56D-09 XBig12= 3.72D-01 1.82D-01.
     15 vectors produced by pass  4 Test12= 4.83D-14 5.56D-09 XBig12= 1.18D-02 4.08D-02.
     15 vectors produced by pass  5 Test12= 4.83D-14 5.56D-09 XBig12= 6.76D-04 8.55D-03.
     15 vectors produced by pass  6 Test12= 4.83D-14 5.56D-09 XBig12= 1.22D-05 6.57D-04.
     15 vectors produced by pass  7 Test12= 4.83D-14 5.56D-09 XBig12= 1.57D-07 1.30D-04.
     12 vectors produced by pass  8 Test12= 4.83D-14 5.56D-09 XBig12= 2.25D-09 1.21D-05.
      7 vectors produced by pass  9 Test12= 4.83D-14 5.56D-09 XBig12= 2.51D-11 1.03D-06.
      3 vectors produced by pass 10 Test12= 4.83D-14 5.56D-09 XBig12= 4.24D-13 1.67D-07.
      1 vectors produced by pass 11 Test12= 4.83D-14 5.56D-09 XBig12= 4.47D-15 1.80D-08.
 InvSVY:  IOpt=1 It=  1 EMax= 1.33D-15
 Solved reduced A of dimension   143 with    15 vectors.
 FullF1:  Do perturbations      1 to      18.
 Isotropic polarizability for W=    0.000000       71.77 Bohr**3.
 Saving first derivative matrices.
 End of Minotr F.D. properties file   721 does not exist.
 End of Minotr F.D. properties file   722 does not exist.
 End of Minotr F.D. properties file   788 does not exist.
 Leave Link 1002 at Wed Jan 12 20:26:18 2022, MaxMem=  1048576000 cpu:            1037.5 elap:             279.7
 (Enter /home/pcmt/gaussian/g16.C.01/g16/l1014.exe)
 Defaulting to unpruned grid for atomic number  92.
 This link is doing    18 degrees of freedom
 Form MO integral derivatives with frozen-active canonical formalism.
 CISSec: MDV=    1048573280
 Doing TD-HF/TD-DFT second derivatives, IDoFFX=6 IOneXC=4 IRadAn=         1.
 Frozen orbitals handled with amplitudes over full window.
 Frozen-core window:  NFC=  21 NFV=   0.
 Symmetry is being used.
 Keep R1, R2, and R3 ints in memory in symmetry-blocked form, NReq=646101548.
 FoFCou: FMM=F IPFlag=           0 FMFlag=           0 FMFlg1=           0
         NFxFlg=           0 DoJE=F BraDBF=F KetDBF=F FulRan=T
         wScrn=  0.000000 ICntrl=       600 IOpCl=  0 I1Cent=           0 NGrid=           0
         NMat0=    1 NMatS0=  32131 NMatT0=    0 NMatD0=    1 NMtDS0=    0 NMtDT0=    0
 Petite list used in FoFCou.
 The selected state is a triplet.
 CISGrX: IGrad=3 NXY=2 DFT=T
 CISAX will form    18 AO SS matrices at one time.
 Defaulting to unpruned grid for atomic number  92.
 Defaulting to unpruned grid for atomic number  92.
 Defaulting to unpruned grid for atomic number  92.
 Defaulting to unpruned grid for atomic number  92.
 NMat=    18 NSing=     0 JSym2X= 2.
     15 vectors produced by pass  0 Test12= 4.71D-14 5.56D-09 XBig12= 3.94D+01 6.24D+00.
 AX will form    15 AO Fock derivatives at one time.
     15 vectors produced by pass  1 Test12= 4.71D-14 5.56D-09 XBig12= 1.09D+01 2.53D+00.
     15 vectors produced by pass  2 Test12= 4.71D-14 5.56D-09 XBig12= 4.26D-01 3.19D-01.
     15 vectors produced by pass  3 Test12= 4.71D-14 5.56D-09 XBig12= 8.00D-03 5.13D-02.
     15 vectors produced by pass  4 Test12= 4.71D-14 5.56D-09 XBig12= 1.18D-04 3.24D-03.
     15 vectors produced by pass  5 Test12= 4.71D-14 5.56D-09 XBig12= 2.10D-06 7.41D-04.
     15 vectors produced by pass  6 Test12= 4.71D-14 5.56D-09 XBig12= 6.09D-08 1.27D-04.
     15 vectors produced by pass  7 Test12= 4.71D-14 5.56D-09 XBig12= 9.14D-10 7.17D-06.
      6 vectors produced by pass  8 Test12= 4.71D-14 5.56D-09 XBig12= 7.91D-12 6.57D-07.
      3 vectors produced by pass  9 Test12= 4.71D-14 5.56D-09 XBig12= 8.25D-14 8.15D-08.
      1 vectors produced by pass 10 Test12= 4.71D-14 5.56D-09 XBig12= 6.92D-16 8.33D-09.
 InvSVY:  IOpt=1 It=  1 EMax= 8.88D-16
 Solved reduced A of dimension   130 with    15 vectors.
 Tx.T =  2.43D-05 for pert.     3
 Tx.T = -1.60D-06 for pert.     6
 Tx.T =  4.03D-07 for pert.     9
 Tx.T =  4.03D-07 for pert.    12
 Tx.T =  3.99D-07 for pert.    18
 Tx.T =  3.99D-07 for pert.    15
 Tx.T = -3.68D-07 for pert.    13
 Tx.T =  3.68D-07 for pert.    16
 Tx.T = -6.98D-08 for pert.    11
 Tx.T =  6.97D-08 for pert.     8
 SavDET:  read IOETrn=   770 NScale= 10 NData=  16 NLR=1 NState=    4 NDeriv=    0 LETran=      82.
 SavDET: write IOETrn=   770 NScale= 10 NData=  16 NLR=1 NState=    4 NDeriv=   18 LETran=     370.
 TDDxLx will form    18 C1x/S1x matrices at one time.
 Interchange theorem applied.
 R6Disp: Adding Grimme-D3(BJ) dispersion energy 1st derivatives to the gradient.
 FoFJK:  IHMeth= 1 ICntrl=    5100 DoSepK=F KAlg= 0 I1Cent=           0 FoldK=F
 IRaf=         0 NMat=       1 IRICut=       1 DoRegI=T DoRafI=F ISym2E= 0 IDoP0=0 IntGTp=1.
 Leave Link 1014 at Wed Jan 12 20:34:04 2022, MaxMem=  1048576000 cpu:            1826.5 elap:             465.5
 (Enter /home/pcmt/gaussian/g16.C.01/g16/l601.exe)
 Copying SCF densities to generalized density rwf, IOpCl= 0 IROHF=0.

 **********************************************************************

            Population analysis using the SCF Density.

 **********************************************************************

 Orbital symmetries:
       Occupied  (A1) (B1) (B2) (A1) (A1) (A1) (B1) (A1) (B1) (B2)
                 (B1) (A1) (B1) (A1) (B2) (A2) (A1) (B1) (B2) (A2)
                 (A1) (A1) (B2) (A1) (B1) (A1) (A1) (B1) (B2) (B2)
                 (A2) (A1) (B1) (A1) (B2) (A1) (B1) (A1) (B1) (A2)
                 (B2)
       Virtual   (A1) (B1) (B2) (A2) (A1) (B1) (A1) (A1) (B1) (B2)
                 (A1) (B2) (B1) (A1) (A2) (B2) (B2) (A1) (A1) (B1)
                 (A2) (B1) (A1) (B2) (A1) (B2) (B1) (A1) (A2) (B1)
                 (A1) (B2) (A2) (B1) (A1) (B2) (A2) (B1) (A1) (B1)
                 (A1) (B2) (A1) (B2) (B1) (A1) (A2) (A1) (B2) (B1)
                 (A1) (B1) (A2) (B2) (A1) (B2) (A1) (B1) (A1) (A1)
                 (B1) (B1) (A2) (A1) (B2) (B2) (A1) (B1) (A1) (B1)
                 (B2) (A2) (B2) (A2) (A1) (A1) (A2) (A2) (B2) (B1)
                 (B2) (A1) (B1) (B1) (A1) (B2) (A1) (B2) (B1) (A2)
                 (B1) (A1) (A2) (B2) (A1) (B1) (A2) (B2) (A1) (B1)
                 (B1) (B2) (A1) (A2) (B1) (A1) (A1) (B2) (B2) (A1)
                 (B1) (A2) (A1) (B1) (A2) (A1) (B2) (B1) (B2) (A2)
                 (A1) (B1) (A1) (B2) (A2) (A1) (A1) (B1) (B2) (A1)
                 (B2) (B2) (B2) (A2) (B1) (A1) (A1) (B1) (A1) (B1)
                 (A2) (A2) (B2) (B1) (A1) (B2) (A1) (B2) (A2) (A1)
                 (B1) (B2) (A1) (B1) (A1) (B1) (A2) (B2) (A1) (A2)
                 (B1) (B2) (A1) (A2) (A1) (B2) (B1) (B2) (A1) (B1)
                 (A1) (B2) (A2) (A1) (B2) (A1) (A2) (B2) (B1) (A1)
                 (A1) (A2) (B1) (B2) (A1) (B1) (A2) (B2) (B1) (A1)
                 (A1) (B1) (A2) (B2) (A1) (A1) (B1) (B2) (B1) (A1)
                 (A1) (A1) (B2) (A1) (B1) (B2) (A1) (A1) (B1) (B2)
                 (A1) (A1)
 The electronic state is 1-A1.
 Alpha  occ. eigenvalues -- -101.68711-101.68710 -19.27584 -19.27583 -12.17428
 Alpha  occ. eigenvalues --   -9.51410  -9.51410  -7.61188  -7.61047  -7.57795
 Alpha  occ. eigenvalues --   -7.24351  -7.24351  -7.24282  -7.24282  -7.24142
 Alpha  occ. eigenvalues --   -7.24142  -3.97517  -3.97475  -3.96116  -3.96041
 Alpha  occ. eigenvalues --   -3.95360  -1.98235  -1.24864  -1.05308  -1.02857
 Alpha  occ. eigenvalues --   -0.98703  -0.80810  -0.80095  -0.76794  -0.45710
 Alpha  occ. eigenvalues --   -0.45557  -0.44720  -0.43277  -0.42976  -0.39971
 Alpha  occ. eigenvalues --   -0.37021  -0.36127  -0.34875  -0.33663  -0.33568
 Alpha  occ. eigenvalues --   -0.31927
 Alpha virt. eigenvalues --   -0.15462  -0.15402  -0.14880  -0.14697  -0.10921
 Alpha virt. eigenvalues --   -0.09922  -0.05115  -0.02388  -0.01416   0.02028
 Alpha virt. eigenvalues --    0.03374   0.04042   0.05236   0.06081   0.08454
 Alpha virt. eigenvalues --    0.10399   0.18389   0.18650   0.23096   0.23104
[...]
      5 -0.574186D-02 -0.450716D-04  0.312596D-03  0.344252D-03  0.206932D-01
      6 -0.107045D-01  0.227849D-02  0.832077D-03  0.791778D-03 -0.992737D-02
      7 -0.450707D-04 -0.574187D-02  0.312607D-03  0.344241D-03  0.946870D-03
      8  0.227849D-02 -0.107045D-01  0.832058D-03  0.791797D-03  0.237425D-02
      9  0.304168D-02  0.304168D-02 -0.959489D-02 -0.958558D-02  0.160926D-02
     10 -0.578694D-02 -0.578694D-02  0.625204D-03  0.688492D-03  0.216400D-01
     11  0.970671D-02  0.970671D-02  0.250481D-03  0.314629D-03  0.146528D-02
     12 -0.862561D-02  0.931033D-03 -0.521298D-03 -0.498529D-03  0.189626D-01
     13 -0.931034D-03  0.862561D-02  0.521292D-03  0.498535D-03 -0.182978D-02
                6             7             8             9            10 
      6  0.548200D-01
      7  0.237424D-02  0.206932D-01
      8 -0.166067D-01 -0.992735D-02  0.548200D-01
      9 -0.547419D-02  0.160926D-02 -0.547419D-02  0.595251D-01
     10 -0.755312D-02  0.216400D-01 -0.755310D-02  0.321852D-02  0.432801D-01
     11 -0.364603D-01  0.146527D-02 -0.364603D-01 -0.288439D-02  0.293055D-02
     12  0.434431D-02  0.182978D-02 -0.277753D-02  0.684281D-02  0.207924D-01
     13  0.277753D-02 -0.189626D-01 -0.434433D-02 -0.684280D-02 -0.207924D-01
               11            12            13 
     11  0.757786D-01
     12 -0.897381D-02  0.217318D-01
     13  0.897382D-02 -0.190015D-02  0.217318D-01
 Leave Link  716 at Wed Jan 12 20:39:01 2022, MaxMem=  1048576000 cpu:               0.7 elap:               0.4
 (Enter /home/pcmt/gaussian/g16.C.01/g16/l103.exe)

 GradGradGradGradGradGradGradGradGradGradGradGradGradGradGradGradGradGrad
 Berny optimization.
 Red2BG is reusing G-inverse.
 Internal  Forces:  Max     0.000000297 RMS     0.000000170
 Search for a local minimum.
 Step number   1 out of a maximum of    2
 All quantities printed in internal units (Hartrees-Bohrs-Radians)
 Second derivative matrix not updated -- analytic derivatives used.
 The second derivative matrix:
                          R1        R2        R3        R4        A1
           R1           0.45783
           R2           0.01007   0.45783
           R3           0.01527   0.01527   0.12003
           R4           0.01527   0.01527   0.00520   0.12003
           A1          -0.00574  -0.00005   0.00031   0.00034   0.02069
           A2          -0.01070   0.00228   0.00083   0.00079  -0.00993
           A3          -0.00005  -0.00574   0.00031   0.00034   0.00095
           A4           0.00228  -0.01070   0.00083   0.00079   0.00237
           A5           0.00304   0.00304  -0.00959  -0.00959   0.00161
           A6          -0.00579  -0.00579   0.00063   0.00069   0.02164
           A7           0.00971   0.00971   0.00025   0.00031   0.00147
           D1          -0.00863   0.00093  -0.00052  -0.00050   0.01896
           D2          -0.00093   0.00863   0.00052   0.00050  -0.00183
                          A2        A3        A4        A5        A6
           A2           0.05482
           A3           0.00237   0.02069
           A4          -0.01661  -0.00993   0.05482
           A5          -0.00547   0.00161  -0.00547   0.05953
           A6          -0.00755   0.02164  -0.00755   0.00322   0.04328
           A7          -0.03646   0.00147  -0.03646  -0.00288   0.00293
           D1           0.00434   0.00183  -0.00278   0.00684   0.02079
           D2           0.00278  -0.01896  -0.00434  -0.00684  -0.02079
                          A7        D1        D2
           A7           0.07578
           D1          -0.00897   0.02173
           D2           0.00897  -0.00190   0.02173
 ITU=  0
     Eigenvalues ---    0.03624   0.05522   0.07402   0.08884   0.11345
     Eigenvalues ---    0.11483   0.12594   0.44850   0.47174
 Angle between quadratic step and forces=  37.48 degrees.
 Linear search not attempted -- first point.
 Iteration  1 RMS(Cart)=  0.00000429 RMS(Int)=  0.00000000
 Iteration  2 RMS(Cart)=  0.00000000 RMS(Int)=  0.00000000
 ITry= 1 IFail=0 DXMaxC= 9.27D-06 DCOld= 1.00D+10 DXMaxT= 3.00D-01 DXLimC= 3.00D+00 Rises=F
 ClnCor:  largest displacement from symmetrization is 1.83D-12 for atom     3.
 Variable       Old X    -DE/DX   Delta X   Delta X   Delta X     New X
                                 (Linear)    (Quad)   (Total)
    R1        3.32230  -0.00000   0.00000  -0.00000  -0.00000   3.32230
    R2        3.32230  -0.00000   0.00000  -0.00000  -0.00000   3.32230
    R3        4.74496   0.00000   0.00000   0.00000   0.00000   4.74496
    R4        4.74496   0.00000   0.00000   0.00000   0.00000   4.74496
    A1        1.65342   0.00000   0.00000   0.00000   0.00000   1.65342
    A2        1.65342   0.00000   0.00000   0.00000   0.00000   1.65342
    A3        1.65342   0.00000   0.00000   0.00000   0.00000   1.65342
    A4        1.65342   0.00000   0.00000   0.00000   0.00000   1.65342
    A5        1.83312   0.00000   0.00000   0.00001   0.00001   1.83312
    A6        3.30684   0.00000   0.00000   0.00000   0.00000   3.30684
    A7        2.92521  -0.00000   0.00000  -0.00000  -0.00000   2.92520
    D1        1.67899   0.00000   0.00000   0.00000   0.00000   1.67899
    D2       -1.67899  -0.00000   0.00000  -0.00000  -0.00000  -1.67899
         Item               Value     Threshold  Converged?
 Maximum Force            0.000000     0.000450     YES
 RMS     Force            0.000000     0.000300     YES
 Maximum Displacement     0.000009     0.001800     YES
 RMS     Displacement     0.000004     0.001200     YES
 Predicted change in Energy=-1.548861D-12
 Optimization completed.
    -- Stationary point found.
                           ----------------------------
                           !   Optimized Parameters   !
                           ! (Angstroms and Degrees)  !
 --------------------------                            --------------------------
 ! Name  Definition              Value          Derivative Info.                !
 --------------------------------------------------------------------------------
 ! R1    R(1,2)                  1.7581         -DE/DX =    0.0                 !
 ! R2    R(1,3)                  1.7581         -DE/DX =    0.0                 !
 ! R3    R(1,4)                  2.5109         -DE/DX =    0.0                 !
 ! R4    R(1,5)                  2.5109         -DE/DX =    0.0                 !
 ! A1    A(2,1,4)               94.734          -DE/DX =    0.0                 !
 ! A2    A(2,1,5)               94.734          -DE/DX =    0.0                 !
 ! A3    A(3,1,4)               94.734          -DE/DX =    0.0                 !
 ! A4    A(3,1,5)               94.734          -DE/DX =    0.0                 !
 ! A5    A(4,1,5)              105.03           -DE/DX =    0.0                 !
 ! A6    L(2,1,3,4,-1)         189.4681         -DE/DX =    0.0                 !
 ! A7    L(2,1,3,4,-2)         167.6019         -DE/DX =    0.0                 !
 ! D1    D(2,1,5,4)             96.199          -DE/DX =    0.0                 !
 ! D2    D(3,1,5,4)            -96.199          -DE/DX =    0.0                 !
 --------------------------------------------------------------------------------
 GradGradGradGradGradGradGradGradGradGradGradGradGradGradGradGradGradGrad

 Leave Link  103 at Wed Jan 12 20:39:01 2022, MaxMem=  1048576000 cpu:               0.2 elap:               0.2
 (Enter /home/pcmt/gaussian/g16.C.01/g16/l9999.exe)
 -------------------------------------------------------------------
 Center     Atomic                Nonadiabatic Coup. (Bohr^-1)
 Number     Number              X              Y              Z
 -------------------------------------------------------------------
      1       92           0.000000000    0.111456559   -0.000000000
      2        8          -0.036753669   -0.136993645    0.000000000
      3        8           0.036753669   -0.136993645    0.000000000
      4       17           0.000000000    0.081265366   -0.045336683
      5       17           0.000000000    0.081265366    0.045336683
 -------------------------------------------------------------------
 Cartesian Nonad. Coup.:  Max     0.136993645 RMS     0.068302121
 Electronic transition elements 
                 1             2             3             4 
      1  -0.154757D+04 -0.154756D+04 -0.154756D+04 -0.154756D+04
      2   0.000000D+00  0.000000D+00  0.000000D+00  0.000000D+00
      3   0.000000D+00  0.000000D+00  0.000000D+00  0.000000D+00
      4   0.000000D+00  0.000000D+00  0.000000D+00  0.000000D+00
      5   0.000000D+00  0.000000D+00  0.000000D+00  0.000000D+00
      6   0.000000D+00  0.000000D+00  0.000000D+00  0.000000D+00
      7   0.000000D+00  0.000000D+00  0.000000D+00  0.000000D+00
      8   0.000000D+00  0.000000D+00  0.000000D+00  0.000000D+00
      9   0.000000D+00  0.000000D+00  0.000000D+00  0.000000D+00
     10   0.000000D+00  0.000000D+00  0.000000D+00  0.000000D+00
     11   0.000000D+00  0.000000D+00  0.000000D+00  0.000000D+00
     12   0.000000D+00  0.000000D+00  0.000000D+00  0.000000D+00
     13   0.000000D+00  0.000000D+00  0.000000D+00  0.000000D+00
     14   0.000000D+00  0.000000D+00  0.000000D+00  0.000000D+00
     15   0.000000D+00  0.000000D+00  0.000000D+00  0.000000D+00
     16   0.000000D+00  0.000000D+00  0.000000D+00  0.000000D+00
 Electronic Transition Derivatives 
                 1             2             3             4             5 
      1   0.000000D+00  0.000000D+00  0.000000D+00  0.000000D+00  0.000000D+00
      2   0.000000D+00  0.000000D+00  0.000000D+00  0.000000D+00  0.000000D+00
      3   0.000000D+00  0.000000D+00  0.000000D+00  0.000000D+00  0.000000D+00
      4   0.000000D+00  0.000000D+00  0.000000D+00  0.000000D+00  0.000000D+00
      5   0.000000D+00  0.000000D+00  0.000000D+00  0.000000D+00  0.000000D+00
      6   0.000000D+00  0.000000D+00  0.000000D+00  0.000000D+00  0.000000D+00
      7   0.000000D+00  0.000000D+00  0.000000D+00  0.000000D+00  0.000000D+00
      8   0.000000D+00  0.000000D+00  0.000000D+00  0.000000D+00  0.000000D+00
      9   0.000000D+00  0.000000D+00  0.000000D+00  0.000000D+00  0.000000D+00
     10   0.000000D+00  0.000000D+00  0.000000D+00  0.000000D+00  0.000000D+00
     11   0.000000D+00  0.000000D+00  0.000000D+00  0.000000D+00  0.000000D+00
     12   0.000000D+00  0.000000D+00  0.000000D+00  0.000000D+00  0.000000D+00
     13   0.000000D+00  0.000000D+00  0.000000D+00  0.000000D+00  0.000000D+00
     14   0.000000D+00  0.000000D+00  0.000000D+00  0.000000D+00  0.000000D+00
     15   0.000000D+00  0.000000D+00  0.000000D+00  0.000000D+00  0.000000D+00
     16   0.000000D+00  0.000000D+00  0.000000D+00  0.000000D+00  0.000000D+00
                 6             7             8             9            10 
      1   0.000000D+00  0.000000D+00  0.000000D+00  0.000000D+00  0.000000D+00
      2   0.000000D+00  0.000000D+00  0.000000D+00  0.000000D+00  0.000000D+00
      3   0.000000D+00  0.000000D+00  0.000000D+00  0.000000D+00  0.000000D+00
      4   0.000000D+00  0.000000D+00  0.000000D+00  0.000000D+00  0.000000D+00
      5   0.000000D+00  0.000000D+00  0.000000D+00  0.000000D+00  0.000000D+00
      6   0.000000D+00  0.000000D+00  0.000000D+00  0.000000D+00  0.000000D+00
      7   0.000000D+00  0.000000D+00  0.000000D+00  0.000000D+00  0.000000D+00
      8   0.000000D+00  0.000000D+00  0.000000D+00  0.000000D+00  0.000000D+00
      9   0.000000D+00  0.000000D+00  0.000000D+00  0.000000D+00  0.000000D+00
     10   0.000000D+00  0.000000D+00  0.000000D+00  0.000000D+00  0.000000D+00
     11   0.000000D+00  0.000000D+00  0.000000D+00  0.000000D+00  0.000000D+00
     12   0.000000D+00  0.000000D+00  0.000000D+00  0.000000D+00  0.000000D+00
     13   0.000000D+00  0.000000D+00  0.000000D+00  0.000000D+00  0.000000D+00
     14   0.000000D+00  0.000000D+00  0.000000D+00  0.000000D+00  0.000000D+00
     15   0.000000D+00  0.000000D+00  0.000000D+00  0.000000D+00  0.000000D+00
     16   0.000000D+00  0.000000D+00  0.000000D+00  0.000000D+00  0.000000D+00
                11            12            13            14            15 
      1   0.000000D+00  0.000000D+00  0.000000D+00  0.000000D+00  0.000000D+00
      2   0.000000D+00  0.000000D+00  0.000000D+00  0.000000D+00  0.000000D+00
      3   0.000000D+00  0.000000D+00  0.000000D+00  0.000000D+00  0.000000D+00
      4   0.000000D+00  0.000000D+00  0.000000D+00  0.000000D+00  0.000000D+00
      5   0.000000D+00  0.000000D+00  0.000000D+00  0.000000D+00  0.000000D+00
      6   0.000000D+00  0.000000D+00  0.000000D+00  0.000000D+00  0.000000D+00
      7   0.000000D+00  0.000000D+00  0.000000D+00  0.000000D+00  0.000000D+00
      8   0.000000D+00  0.000000D+00  0.000000D+00  0.000000D+00  0.000000D+00
      9   0.000000D+00  0.000000D+00  0.000000D+00  0.000000D+00  0.000000D+00
     10   0.000000D+00  0.000000D+00  0.000000D+00  0.000000D+00  0.000000D+00
     11   0.000000D+00  0.000000D+00  0.000000D+00  0.000000D+00  0.000000D+00
     12   0.000000D+00  0.000000D+00  0.000000D+00  0.000000D+00  0.000000D+00
     13   0.000000D+00  0.000000D+00  0.000000D+00  0.000000D+00  0.000000D+00
     14   0.000000D+00  0.000000D+00  0.000000D+00  0.000000D+00  0.000000D+00
     15   0.000000D+00  0.000000D+00  0.000000D+00  0.000000D+00  0.000000D+00
     16   0.000000D+00  0.000000D+00  0.000000D+00  0.000000D+00  0.000000D+00
                16            17            18 
      1   0.000000D+00  0.000000D+00  0.000000D+00
      2   0.000000D+00  0.000000D+00  0.000000D+00
      3   0.000000D+00  0.000000D+00  0.000000D+00
      4   0.000000D+00  0.000000D+00  0.000000D+00
      5   0.000000D+00  0.000000D+00  0.000000D+00
      6   0.000000D+00  0.000000D+00  0.000000D+00
      7   0.000000D+00  0.000000D+00  0.000000D+00
      8   0.000000D+00  0.000000D+00  0.000000D+00
      9   0.000000D+00  0.000000D+00  0.000000D+00
     10   0.000000D+00  0.000000D+00  0.000000D+00
     11   0.000000D+00  0.000000D+00  0.000000D+00
     12   0.000000D+00  0.000000D+00  0.000000D+00
     13   0.000000D+00  0.000000D+00  0.000000D+00
     14   0.000000D+00  0.000000D+00  0.000000D+00
     15   0.000000D+00  0.000000D+00  0.000000D+00
     16   0.000000D+00  0.000000D+00  0.000000D+00

 ----------------------------------------------------------------------

 Electric dipole moment (input orientation):
 (Debye = 10**-18 statcoulomb cm , SI units = C m)
                  (au)            (Debye)         (10**-30 SI)
   Tot        0.177939D+01      0.452277D+01      0.150863D+02
   x          0.000000D+00      0.000000D+00      0.000000D+00
   y          0.177939D+01      0.452277D+01      0.150863D+02
   z          0.000000D+00      0.000000D+00      0.000000D+00

 Dipole polarizability, Alpha (input orientation).
 (esu units = cm**3 , SI units = C**2 m**2 J**-1)
 Alpha(0;0):
               (au)            (10**-24 esu)      (10**-40 SI)
   iso        0.836712D+02      0.123988D+02      0.137955D+02
   aniso      0.436394D+02      0.646669D+01      0.719516D+01
   xx         0.714807D+02      0.105923D+02      0.117856D+02
   yx         0.000000D+00      0.000000D+00      0.000000D+00
   yy         0.668897D+02      0.991203D+01      0.110286D+02
   zx         0.000000D+00      0.000000D+00      0.000000D+00
   zy         0.000000D+00      0.000000D+00      0.000000D+00
   zz         0.112643D+03      0.166920D+02      0.185723D+02

 ----------------------------------------------------------------------

 Dipole orientation:
    92          0.00000000          0.00000000          0.48575792
     8         -3.29160383          0.00000000          0.93632011
     8          3.29160383          0.00000000          0.93632011
    17          0.00000000          3.76518262         -2.40180219
    17         -0.00000000         -3.76518262         -2.40180219

 Electric dipole moment (dipole orientation):
 (Debye = 10**-18 statcoulomb cm , SI units = C m)
                  (au)            (Debye)         (10**-30 SI)
   Tot        0.177939D+01      0.452277D+01      0.150863D+02
   x          0.000000D+00      0.000000D+00      0.000000D+00
   y          0.000000D+00      0.000000D+00      0.000000D+00
   z          0.177939D+01      0.452277D+01      0.150863D+02

 Dipole polarizability, Alpha (dipole orientation).
 (esu units = cm**3 , SI units = C**2 m**2 J**-1)
 Alpha(0;0):
               (au)            (10**-24 esu)      (10**-40 SI)
   iso        0.836712D+02      0.123988D+02      0.137955D+02
   aniso      0.436394D+02      0.646669D+01      0.719516D+01
   xx         0.714807D+02      0.105923D+02      0.117856D+02
   yx         0.000000D+00      0.000000D+00      0.000000D+00
   yy         0.112643D+03      0.166920D+02      0.185723D+02
   zx         0.000000D+00      0.000000D+00      0.000000D+00
   zy         0.000000D+00      0.000000D+00      0.000000D+00
   zz         0.668897D+02      0.991203D+01      0.110286D+02

 ----------------------------------------------------------------------

 Test job not archived.
 1\1\GINC-U-0-4\Freq\RPBE1PBE TD-FC\Gen\Cl2O2U1\VALLET\12-Jan-2022\0\\#
 p PBE1PBE/GEN GFInput GFPrint 5D 7F Pseudo=Read IOP(2/9=2, 4/69=2, 6/7
 =3, 8/10=91, 8/37=22, 8/38=0) EmpiricalDispersion=GD3BJ Symm=(Loose) I
 nt=(UltraFine) Guess=(CheckPoint) Geom=CheckPoint Scf=(NoVarAcc,MaxCyc
 le=100,conver=8) td=(triplets,nstates=4,root=1) Freq\\[UO2Cl4]2- - PBE
 0+D3BJ - ES\\0,1\U,0.,0.257052022,0.\O,-1.7418417325,0.495479265,0.\O,
 1.7418417325,0.495479265,0.\Cl,0.,-1.270978986,-1.992448839\Cl,0.,-1.2
 70978986,1.992448839\\Version=ES64L-G16RevC.01\State=1-A1\HF=-1547.644
 4503\RMSD=6.123e-09\RMSF=1.399e-07\ZeroPoint=0.0074152\Thermal=0.01429
 38\ETot=-1547.5514713\HTot=-1547.5505271\GTot=-1547.5920748\Dipole=0.,
 1.7793935,0.\DipoleDeriv=2.4547359,0.,0.,0.,1.7544623,0.,0.,0.,2.46286
 53,-1.0259466,0.2459482,0.,0.2340262,-0.3895132,0.,0.,0.,-0.3664247,-1
 .0259466,-0.2459482,0.,-0.2340262,-0.3895132,0.,0.,0.,-0.3664248,-0.20
 14214,0.,0.,0.,-0.4877179,-0.3830966,0.,-0.2733479,-0.8650079,-0.20142
 14,0.,0.,0.,-0.4877179,0.3830966,0.,0.2733479,-0.8650079\Polar=71.4807
 148,0.,66.8896919,0.,0.,112.6430796\PG=C02V [C2(U1),SGV(O2),SGV'(Cl2)]
 \NImag=0\\0.92615936,0.,0.16928610,0.,0.,0.21885396,-0.44853538,0.0307
 1737,0.,0.45204309,0.04848202,-0.03274437,0.,-0.05095944,0.02341068,0.
 ,0.,-0.03509059,0.,0.,0.02067148,-0.44853539,-0.03071736,0.,-0.0108116
 3,-0.00287585,0.,0.45204310,-0.04848201,-0.03274437,0.,0.00287585,0.01
 128351,0.,0.05095943,0.02341068,0.,0.,-0.03509059,0.,0.,0.01244336,0.,
 0.,0.02067149,-0.01454429,0.,-0.00000003,0.00365196,0.00267663,0.00357
 291,0.00365196,-0.00267663,-0.00357289,0.00673879,0.,-0.05189868,-0.05
 288736,0.00868311,-0.00097490,-0.00123020,-0.00868311,-0.00097490,-0.0
 0123019,0.,0.04830526,0.,-0.05482499,-0.07433639,0.01237784,-0.0020320
 4,0.00098788,-0.01237784,-0.00203204,0.00098787,0.,0.05711841,0.074618
 28,-0.01454429,0.,0.00000003,0.00365196,0.00267663,-0.00357291,0.00365
 196,-0.00267663,0.00357289,0.00050158,0.,0.,0.00673879,0.,-0.05189868,
 0.05288736,0.00868311,-0.00097490,0.00123020,-0.00868311,-0.00097490,0
 .00123019,0.,0.00554323,0.00177066,0.,0.04830526,0.,0.05482499,-0.0743
 3639,-0.01237784,0.00203204,0.00098788,0.01237784,0.00203204,0.0009878
 7,0.,-0.00177066,-0.00225763,0.,-0.05711841,0.07461828\\0.,-0.00000011
 ,0.,-0.00000030,-0.00000003,0.,0.00000030,-0.00000003,0.,0.,0.00000008
 ,0.00000020,0.,0.00000008,-0.00000020\\\@


 SOME PHYSICISTS WOULD PREFER TO COME BACK TO THE IDEA OF AN OBJECTIVE
 REAL WORLD WHOSE SMALLEST PARTS EXIST OBJECTIVELY IN THE SAME SENSE AS
 STONES OR TREES EXIST INDEPENDENTLY OF WHETHER WE OBSERVE THEM.
 THIS, HOWEVER, IS IMPOSSIBLE.  -- WERNER HEISENBERG
 Job cpu time:       0 days  2 hours  7 minutes  0.5 seconds.
 Elapsed time:       0 days  0 hours 39 minutes 26.0 seconds.
 File lengths (MBytes):  RWF=    261 Int=      0 D2E=      0 Chk=     15 Scr=      1
 Normal termination of Gaussian 16 at Wed Jan 12 20:39:01 2022.
