

 Parallel Execution: Process Information
 ==============================================================================
 Rank   Node Name                              NodeID   MyNodeRank  NodeMaster
    0   u-0-4.local                               0          0          0
    1   u-0-4.local                               0          1         -1
    2   u-0-4.local                               0          2         -1
    3   u-0-4.local                               0          3         -1
    4   u-0-4.local                               1          0          1
    5   u-0-4.local                               1          1         -1
    6   u-0-4.local                               1          2         -1
    7   u-0-4.local                               1          3         -1
    8   u-0-4.local                               2          0          2
    9   u-0-4.local                               2          1         -1
   10   u-0-4.local                               2          2         -1
   11   u-0-4.local                               2          3         -1
   12   u-0-4.local                               3          0          3
   13   u-0-4.local                               3          1         -1
   14   u-0-4.local                               3          2         -1
   15   u-0-4.local                               3          3         -1
 ==============================================================================


May use up to 31228MB of RAM as shared memory on node 0
May use up to 31250MB of RAM as shared memory on node 1
May use up to 31250MB of RAM as shared memory on node 2
May use up to 31250MB of RAM as shared memory on node 3

 *******************************************************************************
 *                                                                             *
 *  --------------------------------                                           *
 *   Amsterdam Modeling Suite (AMS)              2021.106                      *
 *  --------------------------------                                           *
 *                                               r99350 2021-12-03             *
 *                                                                             *
 *                                                                             *
 *                              =================                              *
 *                              |               |                              *
 *                              |     A M S     |                              *
 *                              |               |                              *
 *                              =================                              *
 *                                                                             *
 *                                                                             *
 *   Online information and documentation:  https://www.scm.com/support/       *
 *   E-mail:  support@scm.com   info@scm.com                                   *
 *                                                                             *
 *   Scientific publications using AMS results must be properly referenced     *
 *   See the User Manuals (or the web site) for recommended citations          *
 *   The terms and conditions of the End User License Agreement apply to       *
 *   the use of AMS, https://www.scm.com/license-terms/                        *
 *                                                                             *
 **********************  x86_64_linux_intel / intelmpi  ************************
 
 Licensed to: Dr. Val?rie Vallet / Laboratoire PhLAM UMR 8523 / Villeneuve d'Ascq Cedex / FRANCE 2023-01-20 17:43:01
 SCM User ID: u10325
  
 AMS 2021.106  RunTime: Jan25-2023 17:10:36  ShM Nodes: 4  Procs: 16

 AMS jobname: abs-uo2_2cl_2ar.tddft-camb3lyp.SO
 AMS jobid  : 910179070

 Start   directory: /home/vallet/Bent-Uranyl/uo2_2cl_2ar/geom-pbe0-d3-gp/ams-absorption-emission/
 Results directory: /home/vallet/Bent-Uranyl/uo2_2cl_2ar/geom-pbe0-d3-gp/ams-absorption-emission/abs-uo2_2cl_2ar.tddft-camb3lyp.SO.results/
 Scratch directory: /state/partition2/vallet/923117.phlam-s-sakura/amstmp_abs-uo2_2cl_2ar.tddft-camb3lyp.SO_kid0.910179070/


 Communication costs MPI_COMM_WORLD:     -1.527 usec per message,   0.0452 usec per 8-byte item
 Communication costs for intra-node:      0.172 usec per message,   0.0087 usec per 8-byte item

 RNG seed: 1017834441 -914543229 1301858871 1260362433 949890142 1021098989 1973380953 -107654085



                     *************************************************************************
                     *  ADF 2021.106  RunTime: Jan25-2023 17:10:37  ShM Nodes: 4  Procs: 16  *
                     *************************************************************************
  
       ****************************
       * SINGLE POINT CALCULATION *
       ****************************
 
--------
Geometry
--------
Formula: Ar2Cl2O2U
Atoms
  Index Symbol   x (angstrom)   y (angstrom)   z (angstrom)
      1      U     0.00000000    -0.40576000     0.00000000
      2      O    -1.72519400    -0.22723300     0.00000000
      3      O     1.72519400    -0.22723300     0.00000000
      4     Cl     0.00000000    -1.82966600     2.07659900
      5     Cl     0.00000000    -1.82966600    -2.07659900
      6     Ar     0.00000000     2.15599200    -1.96522600
      7     Ar     0.00000000     2.15599200     1.96522600
 
Total System Charge             0.00000
Bonding info available!
 
 
----------------
ADF Engine Input
----------------
 
 Basis
 Type TZ2P
 Core None
 End
 XC
 libxc CAM-B3LYP
 End
 Relativity
 Level Spin-Orbit
 End
 Symmetry NOSYM
 Excitations
 Lowest 16
 NTO Yes
 Davidson
 End
 FullKernel Yes
 End
 

 Title: *** (NO TITLE) ***

 *** adf ***



 ===========================
 A T T A C H E D   F I L E S
 ===========================
  



 ===============================
 M O D E L   P A R A M E T E R S
 ===============================
  
 Range separated functional parameters:
 RANGESEP OMEGA=    0.330000 ALPHA=    0.190000 BETA=    0.460000 ERF-LONGRANGE 
                                                                                
   
 DENSITY FUNCTIONAL POTENTIAL (scf)

   *** Range Separated Functional ***

 Regions:
   LibXC version: 5. 1. 2
   Exchange-correlation  T T T T F F F T T F F F F F F F F F F F F
   HF parameter =   0.65000000
   LIBXC GAMMA=    0.330000 ALPHA=    0.650000 BETA=   -0.460000
   CAM version of B3LYP (Hybrid GGA)
[1] T. Yanai, D. P. Tew, and N. C. Handy, Chem. Phys. Lett. 393, 51 (2004)

 SPIN  (restricted / unrestr.)
    Molecule:                          Restricted                               
    Fragments:                         Restricted                               

 OTHER ASPECTS
    Relativistic Corrections:          Spin-Orbit (ZORA,MAPA)                  == Not Default ==

    Nuclear Charge Density Model:      Point Charge Nuclei                      
    Core Treatment:                    Frozen Orbital(s)                        

    Hyperfine or Zeeman Interaction:   ---                                      
 WARNING: Atom coordinates do not satisfy full symmetry (probably due to orienta
 tion).


 Fragment File(s)
 ----------------
 U:
         file : /home/vallet/Bent-Uranyl/uo2_2cl_2ar/geom-pbe0-d3-gp/ams-absorption-emission/abs-uo2_2cl_2ar.tddft-camb3lyp.SO.results/t21.6C1485AF.U
         jobid: 0
         title: Uranium (TZ2P, all electron)
 O:
         file : /home/vallet/Bent-Uranyl/uo2_2cl_2ar/geom-pbe0-d3-gp/ams-absorption-emission/abs-uo2_2cl_2ar.tddft-camb3lyp.SO.results/t21.1786ABF1.O
         jobid: 0
         title: Oxygen (TZ2P)
 Cl:
         file : /home/vallet/Bent-Uranyl/uo2_2cl_2ar/geom-pbe0-d3-gp/ams-absorption-emission/abs-uo2_2cl_2ar.tddft-camb3lyp.SO.results/t21.37D265EA.Cl
         jobid: 0
         title: Chlorine (TZ2P)
 Ar:
         file : /home/vallet/Bent-Uranyl/uo2_2cl_2ar/geom-pbe0-d3-gp/ams-absorption-emission/abs-uo2_2cl_2ar.tddft-camb3lyp.SO.results/t21.4F6F9260.Ar
         jobid: 0
         title: Argon (TZ2P)



 ===============
 G E O M E T R Y  ***  3D  Molecule  ***
 ===============
  

 ATOMS
 =====                            X Y Z                    CHARGE
                                (Angstrom)             Nucl     +Core       At.Mass
                       --------------------------    ----------------       -------
    1  U               0.0000   -0.4058    0.0000     92.00     92.00      238.0508
    2  O              -1.7252   -0.2272    0.0000      8.00      8.00       15.9949
    3  O               1.7252   -0.2272    0.0000      8.00      8.00       15.9949
    4  Cl              0.0000   -1.8297    2.0766     17.00     17.00       34.9689
    5  Cl              0.0000   -1.8297   -2.0766     17.00     17.00       34.9689
    6  Ar              0.0000    2.1560   -1.9652     18.00     18.00       39.9624
    7  Ar              0.0000    2.1560    1.9652     18.00     18.00       39.9624


 FRAGMENTS
 =========                                     Atoms in this Fragment     Cart. coord.s (Angstrom)
                                               -------------------------------------------------------
    1  U                                                 1  U            0.0000   -0.4058    0.0000
    2  O                                                 2  O           -1.7252   -0.2272    0.0000
    3  O                                                 3  O            1.7252   -0.2272    0.0000
    4  Cl                                                4  Cl           0.0000   -1.8297    2.0766
    5  Cl                                                5  Cl           0.0000   -1.8297   -2.0766
    6  Ar                                                6  Ar           0.0000    2.1560   -1.9652
    7  Ar                                                7  Ar           0.0000    2.1560    1.9652


 Interatomic Distance Matrix (Angstrom)
 --------------------------------------

   1)     0.000
   2)     1.734   0.000
   3)     1.734   3.450   0.000
   4)     2.518   3.139   3.139   0.000
   5)     2.518   3.139   3.139   4.153   0.000
   6)     3.229   3.538   3.538   5.676   3.987   0.000
   7)     3.229   3.538   3.538   3.987   5.676   3.930   0.000

 Min. Distance =    1.7344
 Max. Distance =    5.6764



 =====================================
 S Y M M E T R Y ,   E L E C T R O N S
 =====================================
  
 Symmetry: NOSYM

 Double Group Irreducible Representations (spinor symmetry)
 -----------------------------------------------------------
 A1/2

 Symmetry is NOT used when fitting density


 Configuration of Valence Electrons
 ==================================
 ( determined in the SCF procedure )

 Total:   178

 Net Charge: 0 (Nuclei minus Electrons)

 Aufbau principle for MO occupations will be applied through SCF cycle no.     150
 Thereafter, the program will assign electrons to MOs that are spatially
 similar to the occupied MOs in a "reference" cycle ("KeepOrbitals").
 The reference cycle is always the PREVIOUS cycle: it will evolve with
 the SCF procedure.
1
 ***************************************************************************************************



                                      ****************************************
                                      *  B U I L D : (Fragments, Functions)  *
                                      ****************************************
  



 =======
 S F O s  ***  (Symmetrized Fragment Orbitals)  ***
 =======
  
 SFOs are linear combinations of (valence) Fragment Orbitals (FOs), such that the SFOs transform as the
 irreducible representations of the (molecular) symmetry group. Each SFO is therefore characterized by
 an irrep of the molecule and by a few (or only one) generating FOs.
 The SFOs constitute a symmetry-adapted basis for the Fock matrix. The MO eigenvector coefficients in
 this basis provide a direct interpretation of the MOs in terms of Frontier Orbital Theory.

 The SFOs are combined with auxiliary Core Functions (CFs) to ensure orthogonalization on the (frozen)
 Core Orbitals (COs). The Core-orthogonalized SFOs (CSFOs) constitute the true Fock basis.

 The FOs, and hence also the (C)SFOs are combinations of the elementary basis functions (BAS). The basis
 functions that participate in the description of the SFOs depend on the irrep. The indices of the
 involved functions are printed below for each irrep.
 (The complete list of primitive basis functions is printed in another section)

 Total nr. of (C)SFOs (summation over all irreps) :   323

 NOTE: a (C)SFO that is defined as a combination of more than one FO is usually NOT normalized.

 NOTE: the (C)SFOs are single group symmetry adapted orbitals.



                                       === A ===
 Nr. of SFOs :  323
 Cartesian basis functions that participate in this irrep (total number =   371) :
      1     2     3     4     5     6     7     8     9    10
     11    12    13    14    15    16    17    20    23    26
     29    32    35    38    41    44    47    50   157    18
     21    24    27    30    33    36    39    42    45    48
     51   158    19    22    25    28    31    34    37    40
     43    46    49    52   159    53    59    65    71    77
     83    89    95   101    54    60    66    72    78    84
     90    96   102    55    61    67    73    79    85    91
     97   103    56    62    68    74    80    86    92    98
    104    57    63    69    75    81    87    93    99   105
     58    64    70    76    82    88    94   100   106   107
    117   127   137   147   108   118   128   138   148   109
    119   129   139   149   110   120   130   140   150   111
    121   131   141   151   112   122   132   142   152   113
    123   133   143   153   114   124   134   144   154   115
    125   135   145   155   116   126   136   146   156   160
    161   162   163   164   165   168   171   166   169   172
    167   170   173   174   175   176   177   178   179   180
    181   182   183   184   185   186   187   188   189   190
    191   192   193   194   195   198   201   196   199   202
    197   200   203   204   205   206   207   208   209   210
    211   212   213   214   215   216   217   218   219   220
    221   222   223   230   231   232   224   227   233   236
    239   225   228   234   237   240   226   229   235   238
    241   242   243   244   245   246   247   248   249   250
    251   252   253   254   255   256   257   258   259   260
    261   268   269   270   262   265   271   274   277   263
    266   272   275   278   264   267   273   276   279   280
    281   282   283   284   285   286   287   288   289   290
    291   292   293   294   295   296   297   298   299   306
    307   308   300   303   309   312   315   301   304   310
    313   316   302   305   311   314   317   318   319   320
    321   322   323   324   325   326   327   328   329   330
    331   332   333   334   335   336   337   344   345   346
    338   341   347   350   353   339   342   348   351   354
    340   343   349   352   355   356   357   358   359   360
    361   362   363   364   365   366   367   368   369   370
    371

    SFO  (index         Fragment          Generating    Expansion in Fragment Orbitals
  indx  incl.CFs)   Occup   Orb.Energy   FragmentType  Coeff.   Orbital     on Fragment
 --------------------------------------------------------------------------------------
     1       1      2.000   -4251.353 au  U             1.00      1 S               1
                        ( -115685.196 eV)
     2       2      2.000    -796.441 au  U             1.00      2 S               1
                        (  -21672.268 eV)
     3       3      2.000    -201.892 au  U             1.00      3 S               1
                        (   -5493.749 eV)
     4       4      2.000     -51.876 au  U             1.00      4 S               1
                        (   -1411.630 eV)
     5       5      2.000     -11.729 au  U             1.00      5 S               1
                        (    -319.169 eV)
     6       6      2.000      -1.945 au  U             1.00      6 S               1
                        (     -52.927 eV)
     7       7      2.000      -0.213 au  U             1.00      7 S               1
                        (      -5.803 eV)
     8       8       --         0.048 au  U             1.00      8 S               1
                        (       1.304 eV)
     9       9       --         0.365 au  U             1.00      9 S               1
                        (       9.926 eV)
    10      10       --         1.710 au  U             1.00     10 S               1
                        (      46.524 eV)
    11      11       --         8.839 au  U             1.00     11 S               1
                        (     240.518 eV)
    12      12       --        47.595 au  U             1.00     12 S               1
                        (    1295.126 eV)
    13      13       --      1081.390 au  U             1.00     13 S               1
                        (   29426.119 eV)
    14      14       --      5574.427 au  U             1.00     14 S               1
                        (  151687.880 eV)
    15      15       --     16665.542 au  U             1.00     15 S               1
                        (  453492.485 eV)
    16      16       --     47306.872 au  U             1.00     16 S               1
                        ( 1287285.481 eV)
    17      17      2.000    -662.462 au  U             1.00      1 P:x             1
                        (  -18026.515 eV)
    18      18      2.000    -164.599 au  U             1.00      2 P:x             1
                        (   -4478.961 eV)
    19      19      2.000     -39.673 au  U             1.00      3 P:x             1
                        (   -1079.554 eV)
    20      20      2.000      -7.932 au  U             1.00      4 P:x             1
                        (    -215.835 eV)
    21      21      2.000      -0.994 au  U             1.00      5 P:x             1
                        (     -27.045 eV)
    22      22       --         0.020 au  U             1.00      6 P:x             1
                        (       0.556 eV)
    23      23       --         0.440 au  U             1.00      7 P:x             1
                        (      11.979 eV)
    24      24       --         1.884 au  U             1.00      8 P:x             1
                        (      51.264 eV)
    25      25       --         7.651 au  U             1.00      9 P:x             1
                        (     208.183 eV)
    26      26       --        36.626 au  U             1.00     10 P:x             1
                        (     996.655 eV)
    27      27       --       183.078 au  U             1.00     11 P:x             1
                        (    4981.805 eV)
    28      28       --      1551.559 au  U             1.00     12 P:x             1
                        (   42220.063 eV)
    29      29       --     11017.681 au  U             1.00     13 P:x             1
                        (  299806.354 eV)
    30      30      2.000    -662.462 au  U             1.00      1 P:y             1
                        (  -18026.515 eV)
    31      31      2.000    -164.599 au  U             1.00      2 P:y             1
                        (   -4478.961 eV)
    32      32      2.000     -39.673 au  U             1.00      3 P:y             1
                        (   -1079.554 eV)
    33      33      2.000      -7.932 au  U             1.00      4 P:y             1
                        (    -215.835 eV)
    34      34      2.000      -0.994 au  U             1.00      5 P:y             1
                        (     -27.045 eV)
    35      35       --         0.020 au  U             1.00      6 P:y             1
                        (       0.556 eV)
    36      36       --         0.440 au  U             1.00      7 P:y             1
                        (      11.979 eV)
    37      37       --         1.884 au  U             1.00      8 P:y             1
                        (      51.264 eV)
    38      38       --         7.651 au  U             1.00      9 P:y             1
                        (     208.183 eV)
    39      39       --        36.626 au  U             1.00     10 P:y             1
                        (     996.655 eV)
    40      40       --       183.078 au  U             1.00     11 P:y             1
                        (    4981.805 eV)
    41      41       --      1551.559 au  U             1.00     12 P:y             1
                        (   42220.063 eV)
    42      42       --     11017.681 au  U             1.00     13 P:y             1
                        (  299806.354 eV)
    43      43      2.000    -662.462 au  U             1.00      1 P:z             1
                        (  -18026.515 eV)
    44      44      2.000    -164.599 au  U             1.00      2 P:z             1
                        (   -4478.961 eV)
    45      45      2.000     -39.673 au  U             1.00      3 P:z             1
                        (   -1079.554 eV)
    46      46      2.000      -7.932 au  U             1.00      4 P:z             1
                        (    -215.835 eV)
    47      47      2.000      -0.994 au  U             1.00      5 P:z             1
                        (     -27.045 eV)
    48      48       --         0.020 au  U             1.00      6 P:z             1
                        (       0.556 eV)
    49      49       --         0.440 au  U             1.00      7 P:z             1
                        (      11.979 eV)
    50      50       --         1.884 au  U             1.00      8 P:z             1
                        (      51.264 eV)
    51      51       --         7.651 au  U             1.00      9 P:z             1
                        (     208.183 eV)
    52      52       --        36.626 au  U             1.00     10 P:z             1
                        (     996.655 eV)
    53      53       --       183.078 au  U             1.00     11 P:z             1
                        (    4981.805 eV)
    54      54       --      1551.559 au  U             1.00     12 P:z             1
                        (   42220.063 eV)
    55      55       --     11017.681 au  U             1.00     13 P:z             1
                        (  299806.354 eV)
    56      56      2.000    -132.007 au  U             1.00      1 D:z2            1
                        (   -3592.098 eV)
    57      57      2.000     -27.274 au  U             1.00      2 D:z2            1
                        (    -742.171 eV)
    58      58      2.000      -3.863 au  U             1.00      3 D:z2            1
                        (    -105.123 eV)
    59      59      0.200      -0.032 au  U             1.00      4 D:z2            1
                        (      -0.878 eV)
    60      60       --         0.088 au  U             1.00      5 D:z2            1
                        (       2.389 eV)
    61      61       --         0.510 au  U             1.00      6 D:z2            1
                        (      13.866 eV)
    62      62       --         3.364 au  U             1.00      7 D:z2            1
                        (      91.549 eV)
    63      63       --        24.287 au  U             1.00      8 D:z2            1
                        (     660.870 eV)
    64      64       --       197.255 au  U             1.00      9 D:z2            1
                        (    5367.594 eV)
    65      65      2.000    -132.007 au  U             1.00      1 D:x2-y2         1
                        (   -3592.098 eV)
    66      66      2.000     -27.274 au  U             1.00      2 D:x2-y2         1
                        (    -742.171 eV)
    67      67      2.000      -3.863 au  U             1.00      3 D:x2-y2         1
                        (    -105.123 eV)
    68      68      0.200      -0.032 au  U             1.00      4 D:x2-y2         1
                        (      -0.878 eV)
    69      69       --         0.088 au  U             1.00      5 D:x2-y2         1
                        (       2.389 eV)
    70      70       --         0.510 au  U             1.00      6 D:x2-y2         1
                        (      13.866 eV)
    71      71       --         3.364 au  U             1.00      7 D:x2-y2         1
                        (      91.549 eV)
    72      72       --        24.287 au  U             1.00      8 D:x2-y2         1
                        (     660.870 eV)
    73      73       --       197.255 au  U             1.00      9 D:x2-y2         1
                        (    5367.594 eV)
    74      74      2.000    -132.007 au  U             1.00      1 D:xy            1
                        (   -3592.098 eV)
    75      75      2.000     -27.274 au  U             1.00      2 D:xy            1
                        (    -742.171 eV)
    76      76      2.000      -3.863 au  U             1.00      3 D:xy            1
                        (    -105.123 eV)
    77      77      0.200      -0.032 au  U             1.00      4 D:xy            1
                        (      -0.878 eV)
    78      78       --         0.088 au  U             1.00      5 D:xy            1
                        (       2.389 eV)
    79      79       --         0.510 au  U             1.00      6 D:xy            1
                        (      13.866 eV)
    80      80       --         3.364 au  U             1.00      7 D:xy            1
                        (      91.549 eV)
    81      81       --        24.287 au  U             1.00      8 D:xy            1
                        (     660.870 eV)
    82      82       --       197.255 au  U             1.00      9 D:xy            1
                        (    5367.594 eV)
    83      83      2.000    -132.007 au  U             1.00      1 D:xz            1
                        (   -3592.098 eV)
    84      84      2.000     -27.274 au  U             1.00      2 D:xz            1
                        (    -742.171 eV)
    85      85      2.000      -3.863 au  U             1.00      3 D:xz            1
                        (    -105.123 eV)
    86      86      0.200      -0.032 au  U             1.00      4 D:xz            1
                        (      -0.878 eV)
    87      87       --         0.088 au  U             1.00      5 D:xz            1
                        (       2.389 eV)
    88      88       --         0.510 au  U             1.00      6 D:xz            1
                        (      13.866 eV)
    89      89       --         3.364 au  U             1.00      7 D:xz            1
                        (      91.549 eV)
    90      90       --        24.287 au  U             1.00      8 D:xz            1
                        (     660.870 eV)
    91      91       --       197.255 au  U             1.00      9 D:xz            1
                        (    5367.594 eV)
    92      92      2.000    -132.007 au  U             1.00      1 D:yz            1
                        (   -3592.098 eV)
    93      93      2.000     -27.274 au  U             1.00      2 D:yz            1
                        (    -742.171 eV)
    94      94      2.000      -3.863 au  U             1.00      3 D:yz            1
                        (    -105.123 eV)
    95      95      0.200      -0.032 au  U             1.00      4 D:yz            1
                        (      -0.878 eV)
    96      96       --         0.088 au  U             1.00      5 D:yz            1
                        (       2.389 eV)
    97      97       --         0.510 au  U             1.00      6 D:yz            1
                        (      13.866 eV)
    98      98       --         3.364 au  U             1.00      7 D:yz            1
                        (      91.549 eV)
    99      99       --        24.287 au  U             1.00      8 D:yz            1
                        (     660.870 eV)
   100     100       --       197.255 au  U             1.00      9 D:yz            1
                        (    5367.594 eV)
   101     101      2.000     -14.070 au  U             1.00      1 F:z3            1
                        (    -382.852 eV)
   102     102      0.429      -0.056 au  U             1.00      2 F:z3            1
                        (      -1.528 eV)
   103     103       --         0.379 au  U             1.00      3 F:z3            1
                        (      10.321 eV)
   104     104       --         2.236 au  U             1.00      4 F:z3            1
                        (      60.848 eV)
   105     105       --        21.518 au  U             1.00      5 F:z3            1
                        (     585.544 eV)
   106     106      2.000     -14.070 au  U             1.00      1 F:z             1
                        (    -382.852 eV)
   107     107      0.429      -0.056 au  U             1.00      2 F:z             1
                        (      -1.528 eV)
   108     108       --         0.379 au  U             1.00      3 F:z             1
                        (      10.321 eV)
   109     109       --         2.236 au  U             1.00      4 F:z             1
                        (      60.848 eV)
   110     110       --        21.518 au  U             1.00      5 F:z             1
                        (     585.544 eV)
   111     111      2.000     -14.070 au  U             1.00      1 F:xyz           1
                        (    -382.852 eV)
   112     112      0.429      -0.056 au  U             1.00      2 F:xyz           1
                        (      -1.528 eV)
   113     113       --         0.379 au  U             1.00      3 F:xyz           1
                        (      10.321 eV)
   114     114       --         2.236 au  U             1.00      4 F:xyz           1
                        (      60.848 eV)
   115     115       --        21.518 au  U             1.00      5 F:xyz           1
                        (     585.544 eV)
   116     116      2.000     -14.070 au  U             1.00      1 F:z2x           1
                        (    -382.852 eV)
   117     117      0.429      -0.056 au  U             1.00      2 F:z2x           1
                        (      -1.528 eV)
   118     118       --         0.379 au  U             1.00      3 F:z2x           1
                        (      10.321 eV)
   119     119       --         2.236 au  U             1.00      4 F:z2x           1
                        (      60.848 eV)
   120     120       --        21.518 au  U             1.00      5 F:z2x           1
                        (     585.544 eV)
   121     121      2.000     -14.070 au  U             1.00      1 F:z2y           1
                        (    -382.852 eV)
   122     122      0.429      -0.056 au  U             1.00      2 F:z2y           1
                        (      -1.528 eV)
   123     123       --         0.379 au  U             1.00      3 F:z2y           1
                        (      10.321 eV)
   124     124       --         2.236 au  U             1.00      4 F:z2y           1
                        (      60.848 eV)
   125     125       --        21.518 au  U             1.00      5 F:z2y           1
                        (     585.544 eV)
   126     126      2.000     -14.070 au  U             1.00      1 F:x             1
                        (    -382.852 eV)
   127     127      0.429      -0.056 au  U             1.00      2 F:x             1
                        (      -1.528 eV)
   128     128       --         0.379 au  U             1.00      3 F:x             1
                        (      10.321 eV)
   129     129       --         2.236 au  U             1.00      4 F:x             1
                        (      60.848 eV)
   130     130       --        21.518 au  U             1.00      5 F:x             1
                        (     585.544 eV)
   131     131      2.000     -14.070 au  U             1.00      1 F:y             1
                        (    -382.852 eV)
   132     132      0.429      -0.056 au  U             1.00      2 F:y             1
                        (      -1.528 eV)
   133     133       --         0.379 au  U             1.00      3 F:y             1
                        (      10.321 eV)
   134     134       --         2.236 au  U             1.00      4 F:y             1
                        (      60.848 eV)
   135     135       --        21.518 au  U             1.00      5 F:y             1
                        (     585.544 eV)
   136     136      2.000     -19.398 au  O             1.00      1 S               2
                        (    -527.846 eV)
   137     137      2.000      -1.055 au  O             1.00      2 S               2
                        (     -28.706 eV)
   138     138       --         0.898 au  O             1.00      3 S               2
                        (      24.442 eV)
   139     139       --        13.659 au  O             1.00      4 S               2
                        (     371.685 eV)
   140     140       --       122.205 au  O             1.00      5 S               2
                        (    3325.373 eV)
   141     141      1.333      -0.391 au  O             1.00      1 P:x             2
                        (     -10.628 eV)
   142     142       --         0.430 au  O             1.00      2 P:x             2
                        (      11.691 eV)
   143     143       --         3.994 au  O             1.00      3 P:x             2
                        (     108.695 eV)
   144     144      1.333      -0.391 au  O             1.00      1 P:y             2
                        (     -10.628 eV)
   145     145       --         0.430 au  O             1.00      2 P:y             2
                        (      11.691 eV)
   146     146       --         3.994 au  O             1.00      3 P:y             2
                        (     108.695 eV)
   147     147      1.333      -0.391 au  O             1.00      1 P:z             2
                        (     -10.628 eV)
   148     148       --         0.430 au  O             1.00      2 P:z             2
                        (      11.691 eV)
   149     149       --         3.994 au  O             1.00      3 P:z             2
                        (     108.695 eV)
   150     150       --         1.180 au  O             1.00      1 D:z2            2
                        (      32.112 eV)
   151     151       --         1.180 au  O             1.00      1 D:x2-y2         2
                        (      32.112 eV)
   152     152       --         1.180 au  O             1.00      1 D:xy            2
                        (      32.112 eV)
   153     153       --         1.180 au  O             1.00      1 D:xz            2
                        (      32.112 eV)
   154     154       --         1.180 au  O             1.00      1 D:yz            2
                        (      32.112 eV)
   155     155       --         3.501 au  O             1.00      1 F:z3            2
                        (      95.277 eV)
   156     156       --         3.501 au  O             1.00      1 F:z             2
                        (      95.277 eV)
   157     157       --         3.501 au  O             1.00      1 F:xyz           2
                        (      95.277 eV)
   158     158       --         3.501 au  O             1.00      1 F:z2x           2
                        (      95.277 eV)
   159     159       --         3.501 au  O             1.00      1 F:z2y           2
                        (      95.277 eV)
   160     160       --         3.501 au  O             1.00      1 F:x             2
                        (      95.277 eV)
   161     161       --         3.501 au  O             1.00      1 F:y             2
                        (      95.277 eV)
   162     162      2.000     -19.398 au  O             1.00      1 S               3
                        (    -527.846 eV)
   163     163      2.000      -1.055 au  O             1.00      2 S               3
                        (     -28.706 eV)
   164     164       --         0.898 au  O             1.00      3 S               3
                        (      24.442 eV)
   165     165       --        13.659 au  O             1.00      4 S               3
                        (     371.685 eV)
   166     166       --       122.205 au  O             1.00      5 S               3
                        (    3325.373 eV)
   167     167      1.333      -0.391 au  O             1.00      1 P:x             3
                        (     -10.628 eV)
   168     168       --         0.430 au  O             1.00      2 P:x             3
                        (      11.691 eV)
   169     169       --         3.994 au  O             1.00      3 P:x             3
                        (     108.695 eV)
   170     170      1.333      -0.391 au  O             1.00      1 P:y             3
                        (     -10.628 eV)
   171     171       --         0.430 au  O             1.00      2 P:y             3
                        (      11.691 eV)
   172     172       --         3.994 au  O             1.00      3 P:y             3
                        (     108.695 eV)
   173     173      1.333      -0.391 au  O             1.00      1 P:z             3
                        (     -10.628 eV)
   174     174       --         0.430 au  O             1.00      2 P:z             3
                        (      11.691 eV)
   175     175       --         3.994 au  O             1.00      3 P:z             3
                        (     108.695 eV)
   176     176       --         1.180 au  O             1.00      1 D:z2            3
                        (      32.112 eV)
   177     177       --         1.180 au  O             1.00      1 D:x2-y2         3
                        (      32.112 eV)
   178     178       --         1.180 au  O             1.00      1 D:xy            3
                        (      32.112 eV)
   179     179       --         1.180 au  O             1.00      1 D:xz            3
                        (      32.112 eV)
   180     180       --         1.180 au  O             1.00      1 D:yz            3
                        (      32.112 eV)
   181     181       --         3.501 au  O             1.00      1 F:z3            3
                        (      95.277 eV)
   182     182       --         3.501 au  O             1.00      1 F:z             3
                        (      95.277 eV)
   183     183       --         3.501 au  O             1.00      1 F:xyz           3
                        (      95.277 eV)
   184     184       --         3.501 au  O             1.00      1 F:z2x           3
                        (      95.277 eV)
   185     185       --         3.501 au  O             1.00      1 F:z2y           3
                        (      95.277 eV)
   186     186       --         3.501 au  O             1.00      1 F:x             3
                        (      95.277 eV)
   187     187       --         3.501 au  O             1.00      1 F:y             3
                        (      95.277 eV)
   188     188      2.000    -102.006 au  Cl            1.00      1 S               4
                        (   -2775.733 eV)
   189     189      2.000      -9.646 au  Cl            1.00      2 S               4
                        (    -262.473 eV)
   190     190      2.000      -0.914 au  Cl            1.00      3 S               4
                        (     -24.882 eV)
   191     191       --         0.270 au  Cl            1.00      4 S               4
                        (       7.338 eV)
   192     192       --         2.124 au  Cl            1.00      5 S               4
                        (      57.791 eV)
   193     193       --        12.863 au  Cl            1.00      6 S               4
                        (     350.012 eV)
   194     194       --       206.203 au  Cl            1.00      7 S               4
                        (    5611.064 eV)
   195     195      2.000      -7.339 au  Cl            1.00      1 P:x             4
                        (    -199.700 eV)
   196     196      1.667      -0.392 au  Cl            1.00      2 P:x             4
                        (     -10.673 eV)
   197     197       --         0.296 au  Cl            1.00      3 P:x             4
                        (       8.050 eV)
   198     198       --         2.241 au  Cl            1.00      4 P:x             4
                        (      60.977 eV)
   199     199       --        18.987 au  Cl            1.00      5 P:x             4
                        (     516.660 eV)
   200     200      2.000      -7.339 au  Cl            1.00      1 P:y             4
                        (    -199.700 eV)
   201     201      1.667      -0.392 au  Cl            1.00      2 P:y             4
                        (     -10.673 eV)
   202     202       --         0.296 au  Cl            1.00      3 P:y             4
                        (       8.050 eV)
   203     203       --         2.241 au  Cl            1.00      4 P:y             4
                        (      60.977 eV)
   204     204       --        18.987 au  Cl            1.00      5 P:y             4
                        (     516.660 eV)
   205     205      2.000      -7.339 au  Cl            1.00      1 P:z             4
                        (    -199.700 eV)
   206     206      1.667      -0.392 au  Cl            1.00      2 P:z             4
                        (     -10.673 eV)
   207     207       --         0.296 au  Cl            1.00      3 P:z             4
                        (       8.050 eV)
   208     208       --         2.241 au  Cl            1.00      4 P:z             4
                        (      60.977 eV)
   209     209       --        18.987 au  Cl            1.00      5 P:z             4
                        (     516.660 eV)
   210     210       --         0.498 au  Cl            1.00      1 D:z2            4
                        (      13.551 eV)
   211     211       --         0.498 au  Cl            1.00      1 D:x2-y2         4
                        (      13.551 eV)
   212     212       --         0.498 au  Cl            1.00      1 D:xy            4
                        (      13.551 eV)
   213     213       --         0.498 au  Cl            1.00      1 D:xz            4
                        (      13.551 eV)
   214     214       --         0.498 au  Cl            1.00      1 D:yz            4
                        (      13.551 eV)
   215     215       --         1.307 au  Cl            1.00      1 F:z3            4
                        (      35.555 eV)
   216     216       --         1.307 au  Cl            1.00      1 F:z             4
                        (      35.555 eV)
   217     217       --         1.307 au  Cl            1.00      1 F:xyz           4
                        (      35.555 eV)
   218     218       --         1.307 au  Cl            1.00      1 F:z2x           4
                        (      35.555 eV)
   219     219       --         1.307 au  Cl            1.00      1 F:z2y           4
                        (      35.555 eV)
   220     220       --         1.307 au  Cl            1.00      1 F:x             4
                        (      35.555 eV)
   221     221       --         1.307 au  Cl            1.00      1 F:y             4
                        (      35.555 eV)
   222     222      2.000    -102.006 au  Cl            1.00      1 S               5
                        (   -2775.733 eV)
   223     223      2.000      -9.646 au  Cl            1.00      2 S               5
                        (    -262.473 eV)
   224     224      2.000      -0.914 au  Cl            1.00      3 S               5
                        (     -24.882 eV)
   225     225       --         0.270 au  Cl            1.00      4 S               5
                        (       7.338 eV)
   226     226       --         2.124 au  Cl            1.00      5 S               5
                        (      57.791 eV)
   227     227       --        12.863 au  Cl            1.00      6 S               5
                        (     350.012 eV)
   228     228       --       206.203 au  Cl            1.00      7 S               5
                        (    5611.064 eV)
   229     229      2.000      -7.339 au  Cl            1.00      1 P:x             5
                        (    -199.700 eV)
   230     230      1.667      -0.392 au  Cl            1.00      2 P:x             5
                        (     -10.673 eV)
   231     231       --         0.296 au  Cl            1.00      3 P:x             5
                        (       8.050 eV)
   232     232       --         2.241 au  Cl            1.00      4 P:x             5
                        (      60.977 eV)
   233     233       --        18.987 au  Cl            1.00      5 P:x             5
                        (     516.660 eV)
   234     234      2.000      -7.339 au  Cl            1.00      1 P:y             5
                        (    -199.700 eV)
   235     235      1.667      -0.392 au  Cl            1.00      2 P:y             5
                        (     -10.673 eV)
   236     236       --         0.296 au  Cl            1.00      3 P:y             5
                        (       8.050 eV)
   237     237       --         2.241 au  Cl            1.00      4 P:y             5
                        (      60.977 eV)
   238     238       --        18.987 au  Cl            1.00      5 P:y             5
                        (     516.660 eV)
   239     239      2.000      -7.339 au  Cl            1.00      1 P:z             5
                        (    -199.700 eV)
   240     240      1.667      -0.392 au  Cl            1.00      2 P:z             5
                        (     -10.673 eV)
   241     241       --         0.296 au  Cl            1.00      3 P:z             5
                        (       8.050 eV)
   242     242       --         2.241 au  Cl            1.00      4 P:z             5
                        (      60.977 eV)
   243     243       --        18.987 au  Cl            1.00      5 P:z             5
                        (     516.660 eV)
   244     244       --         0.498 au  Cl            1.00      1 D:z2            5
                        (      13.551 eV)
   245     245       --         0.498 au  Cl            1.00      1 D:x2-y2         5
                        (      13.551 eV)
   246     246       --         0.498 au  Cl            1.00      1 D:xy            5
                        (      13.551 eV)
   247     247       --         0.498 au  Cl            1.00      1 D:xz            5
                        (      13.551 eV)
   248     248       --         0.498 au  Cl            1.00      1 D:yz            5
                        (      13.551 eV)
   249     249       --         1.307 au  Cl            1.00      1 F:z3            5
                        (      35.555 eV)
   250     250       --         1.307 au  Cl            1.00      1 F:z             5
                        (      35.555 eV)
   251     251       --         1.307 au  Cl            1.00      1 F:xyz           5
                        (      35.555 eV)
   252     252       --         1.307 au  Cl            1.00      1 F:z2x           5
                        (      35.555 eV)
   253     253       --         1.307 au  Cl            1.00      1 F:z2y           5
                        (      35.555 eV)
   254     254       --         1.307 au  Cl            1.00      1 F:x             5
                        (      35.555 eV)
   255     255       --         1.307 au  Cl            1.00      1 F:y             5
                        (      35.555 eV)
   256     256      2.000    -115.602 au  Ar            1.00      1 S               6
                        (   -3145.695 eV)
   257     257      2.000     -11.281 au  Ar            1.00      2 S               6
                        (    -306.984 eV)
   258     258      2.000      -1.059 au  Ar            1.00      3 S               6
                        (     -28.818 eV)
   259     259       --         0.352 au  Ar            1.00      4 S               6
                        (       9.572 eV)
   260     260       --         2.798 au  Ar            1.00      5 S               6
                        (      76.148 eV)
   261     261       --        16.478 au  Ar            1.00      6 S               6
                        (     448.385 eV)
   262     262       --       247.256 au  Ar            1.00      7 S               6
                        (    6728.182 eV)
   263     263      2.000      -8.750 au  Ar            1.00      1 P:x             6
                        (    -238.092 eV)
   264     264      2.000      -0.495 au  Ar            1.00      2 P:x             6
                        (     -13.459 eV)
   265     265       --         0.255 au  Ar            1.00      3 P:x             6
                        (       6.938 eV)
   266     266       --         1.810 au  Ar            1.00      4 P:x             6
                        (      49.243 eV)
   267     267       --        18.472 au  Ar            1.00      5 P:x             6
                        (     502.636 eV)
   268     268      2.000      -8.750 au  Ar            1.00      1 P:y             6
                        (    -238.092 eV)
   269     269      2.000      -0.495 au  Ar            1.00      2 P:y             6
                        (     -13.459 eV)
   270     270       --         0.255 au  Ar            1.00      3 P:y             6
                        (       6.938 eV)
   271     271       --         1.810 au  Ar            1.00      4 P:y             6
                        (      49.243 eV)
   272     272       --        18.472 au  Ar            1.00      5 P:y             6
                        (     502.636 eV)
   273     273      2.000      -8.750 au  Ar            1.00      1 P:z             6
                        (    -238.092 eV)
   274     274      2.000      -0.495 au  Ar            1.00      2 P:z             6
                        (     -13.459 eV)
   275     275       --         0.255 au  Ar            1.00      3 P:z             6
                        (       6.938 eV)
   276     276       --         1.810 au  Ar            1.00      4 P:z             6
                        (      49.243 eV)
   277     277       --        18.472 au  Ar            1.00      5 P:z             6
                        (     502.636 eV)
   278     278       --         0.571 au  Ar            1.00      1 D:z2            6
                        (      15.537 eV)
   279     279       --         0.571 au  Ar            1.00      1 D:x2-y2         6
                        (      15.537 eV)
   280     280       --         0.571 au  Ar            1.00      1 D:xy            6
                        (      15.537 eV)
   281     281       --         0.571 au  Ar            1.00      1 D:xz            6
                        (      15.537 eV)
   282     282       --         0.571 au  Ar            1.00      1 D:yz            6
                        (      15.537 eV)
   283     283       --         1.951 au  Ar            1.00      1 F:z3            6
                        (      53.095 eV)
   284     284       --         1.951 au  Ar            1.00      1 F:z             6
                        (      53.095 eV)
   285     285       --         1.951 au  Ar            1.00      1 F:xyz           6
                        (      53.095 eV)
   286     286       --         1.951 au  Ar            1.00      1 F:z2x           6
                        (      53.095 eV)
   287     287       --         1.951 au  Ar            1.00      1 F:z2y           6
                        (      53.095 eV)
   288     288       --         1.951 au  Ar            1.00      1 F:x             6
                        (      53.095 eV)
   289     289       --         1.951 au  Ar            1.00      1 F:y             6
                        (      53.095 eV)
   290     290      2.000    -115.602 au  Ar            1.00      1 S               7
                        (   -3145.695 eV)
   291     291      2.000     -11.281 au  Ar            1.00      2 S               7
                        (    -306.984 eV)
   292     292      2.000      -1.059 au  Ar            1.00      3 S               7
                        (     -28.818 eV)
   293     293       --         0.352 au  Ar            1.00      4 S               7
                        (       9.572 eV)
   294     294       --         2.798 au  Ar            1.00      5 S               7
                        (      76.148 eV)
   295     295       --        16.478 au  Ar            1.00      6 S               7
                        (     448.385 eV)
   296     296       --       247.256 au  Ar            1.00      7 S               7
                        (    6728.182 eV)
   297     297      2.000      -8.750 au  Ar            1.00      1 P:x             7
                        (    -238.092 eV)
   298     298      2.000      -0.495 au  Ar            1.00      2 P:x             7
                        (     -13.459 eV)
   299     299       --         0.255 au  Ar            1.00      3 P:x             7
                        (       6.938 eV)
   300     300       --         1.810 au  Ar            1.00      4 P:x             7
                        (      49.243 eV)
   301     301       --        18.472 au  Ar            1.00      5 P:x             7
                        (     502.636 eV)
   302     302      2.000      -8.750 au  Ar            1.00      1 P:y             7
                        (    -238.092 eV)
   303     303      2.000      -0.495 au  Ar            1.00      2 P:y             7
                        (     -13.459 eV)
   304     304       --         0.255 au  Ar            1.00      3 P:y             7
                        (       6.938 eV)
   305     305       --         1.810 au  Ar            1.00      4 P:y             7
                        (      49.243 eV)
   306     306       --        18.472 au  Ar            1.00      5 P:y             7
                        (     502.636 eV)
   307     307      2.000      -8.750 au  Ar            1.00      1 P:z             7
                        (    -238.092 eV)
   308     308      2.000      -0.495 au  Ar            1.00      2 P:z             7
                        (     -13.459 eV)
   309     309       --         0.255 au  Ar            1.00      3 P:z             7
                        (       6.938 eV)
   310     310       --         1.810 au  Ar            1.00      4 P:z             7
                        (      49.243 eV)
   311     311       --        18.472 au  Ar            1.00      5 P:z             7
                        (     502.636 eV)
   312     312       --         0.571 au  Ar            1.00      1 D:z2            7
                        (      15.537 eV)
   313     313       --         0.571 au  Ar            1.00      1 D:x2-y2         7
                        (      15.537 eV)
   314     314       --         0.571 au  Ar            1.00      1 D:xy            7
                        (      15.537 eV)
   315     315       --         0.571 au  Ar            1.00      1 D:xz            7
                        (      15.537 eV)
   316     316       --         0.571 au  Ar            1.00      1 D:yz            7
                        (      15.537 eV)
   317     317       --         1.951 au  Ar            1.00      1 F:z3            7
                        (      53.095 eV)
   318     318       --         1.951 au  Ar            1.00      1 F:z             7
                        (      53.095 eV)
   319     319       --         1.951 au  Ar            1.00      1 F:xyz           7
                        (      53.095 eV)
   320     320       --         1.951 au  Ar            1.00      1 F:z2x           7
                        (      53.095 eV)
   321     321       --         1.951 au  Ar            1.00      1 F:z2y           7
                        (      53.095 eV)
   322     322       --         1.951 au  Ar            1.00      1 F:x             7
                        (      53.095 eV)
   323     323       --         1.951 au  Ar            1.00      1 F:y             7
                        (      53.095 eV)



 ================================
 (Slater-type)  F U N C T I O N S  ***  (Basis and Fit)  ***
 ================================
  

 Atom Type    1  (U)
 ==============

 Valence Basis Sets:  43
 -----------------------
   1 S 1060.000000
   1 S  245.000000
   1 S  108.800000
   2 S  134.900000
   2 S   47.200000
   3 S   60.000000
   3 S   25.900000
   4 S   15.800000
   4 S   11.100000
   5 S   10.450000
   5 S    7.250000
   6 S    5.000000
   6 S    3.300000
   7 S    2.350000
   7 S    1.550000
   7 S    1.020000
   2 P  245.000000
   2 P   85.500000
   2 P   44.200000
   3 P   25.100000
   3 P   18.100000
   4 P   17.900000
   4 P   12.300000
   5 P    8.650000
   5 P    6.000000
   6 P    4.450000
   6 P    3.000000
   6 P    2.100000
   3 D   33.250000
   3 D   22.050000
   4 D   15.250000
   4 D   10.550000
   5 D    7.250000
   5 D    4.650000
   6 D    2.900000
   6 D    1.600000
   6 D    0.880000
   4 F   17.450000
   4 F    9.600000
   5 F    5.800000
   5 F    3.000000
   5 F    1.390000
   7 P    1.550000

 Charge Fitting Sets (for the computation of the Coulomb Potential):  87
 -----------------------------------------------------------------------
   1 S 2120.000000
   1 S 1594.965000
   1 S 1199.960000
   1 S  902.780000
   1 S  679.200000
   1 S  510.990000
   1 S  384.440000
   1 S  289.230000
   1 S  217.600000
   1 S  129.260000
   2 S  142.240000
   2 S   95.100000
   3 S   93.370000
   3 S   66.470000
   4 S   62.580000
   4 S   46.380000
   5 S   42.820000
   5 S   32.660000
   6 S   29.850000
   6 S   23.270000
   7 S   21.150000
   7 S   16.770000
   8 S   15.210000
   8 S   12.230000
   9 S   11.070000
   9 S    9.010000
  10 S    8.150000
  10 S    6.700000
  11 S    6.070000
  11 S    5.030000
  12 S    4.550000
  12 S    3.810000
  12 S    3.180000
  13 S    2.880000
  13 S    2.420000
  13 S    2.040000
   2 P  153.000000
   3 P  127.690000
   4 P  104.620000
   5 P   85.360000
   6 P   69.720000
   7 P   57.130000
   7 P   40.980000
   8 P   33.710000
   8 P   24.670000
   9 P   20.380000
   9 P   15.180000
  10 P   12.590000
  10 P    9.510000
  11 P    7.920000
  11 P    6.060000
  12 P    5.070000
  12 P    3.920000
  13 P    3.290000
  13 P    2.570000
   3 D  130.850000
   4 D   91.890000
   5 D   65.340000
   6 D   47.080000
   7 D   34.350000
   8 D   25.360000
   9 D   18.910000
   9 D   12.740000
  10 D    9.600000
  10 D    6.590000
  11 D    5.010000
  11 D    3.500000
  12 D    2.680000
  12 D    1.900000
   4 F  118.400000
   5 F   72.780000
   6 F   45.920000
   7 F   29.630000
   8 F   19.500000
   9 F   13.050000
  10 F    8.870000
  10 F    5.510000
  11 F    3.800000
  11 F    2.410000
   5 G   53.800000
   6 G   31.220000
   7 G   18.640000
   8 G   11.410000
   9 G    7.140000
  10 G    4.550000
  11 G    2.950000
  11 G    1.760000

 Atom Type    2  (O)
 ==============

 Valence Basis Sets:  10
 -----------------------
   1 S    9.800000
   1 S    6.800000
   2 S    7.580000
   2 S    2.880000
   2 S    1.720000
   2 P    4.080000
   2 P    2.080000
   2 P    1.120000
   3 D    2.000000
   4 F    3.000000

 Charge Fitting Sets (for the computation of the Coulomb Potential):  22
 -----------------------------------------------------------------------
   1 S   19.600000
   2 S   22.600000
   2 S   15.680000
   2 S   10.890000
   2 S    7.560000
   3 S    7.690000
   3 S    5.650000
   3 S    4.150000
   3 S    3.050000
   3 S    2.240000
   2 P   12.860000
   2 P    7.680000
   3 P    6.780000
   3 P    4.390000
   3 P    2.840000
   3 D    8.800000
   3 D    5.580000
   3 D    3.530000
   3 D    2.240000
   4 F    6.200000
   4 F    3.700000
   5 G    4.500000

 Atom Type    3  (Cl)
 ==============

 Valence Basis Sets:  14
 -----------------------
   1 S   20.300000
   1 S   15.250000
   2 S    6.250000
   2 S    4.450000
   2 P    8.850000
   2 P    5.050000
   3 S    3.450000
   3 S    2.300000
   3 S    1.600000
   3 P    3.350000
   3 P    2.050000
   3 P    1.200000
   3 D    2.000000
   4 F    2.000000

 Charge Fitting Sets (for the computation of the Coulomb Potential):  30
 -----------------------------------------------------------------------
   1 S   40.600000
   1 S   24.830000
   2 S   28.080000
   2 S   19.200000
   3 S   19.250000
   3 S   13.970000
   3 S   10.130000
   4 S    9.710000
   4 S    7.320000
   4 S    5.510000
   5 S    5.170000
   5 S    4.000000
   5 S    3.100000
   5 S    2.400000
   2 P   29.150000
   3 P   21.740000
   4 P   16.160000
   4 P    9.600000
   5 P    7.180000
   5 P    4.480000
   5 P    2.800000
   3 D   21.950000
   4 D   15.750000
   4 D    9.040000
   5 D    6.550000
   5 D    3.960000
   5 D    2.400000
   4 F    5.000000
   4 F    3.000000
   5 G    3.500000

 Atom Type    4  (Ar)
 ==============

 Valence Basis Sets:  14
 -----------------------
   1 S   21.900000
   1 S   16.300000
   2 S    6.650000
   2 S    4.750000
   2 P    9.300000
   2 P    5.450000
   3 S    4.100000
   3 S    2.600000
   3 S    1.750000
   3 P    3.200000
   3 P    1.900000
   3 P    1.200000
   3 D    2.200000
   4 F    2.500000

 Charge Fitting Sets (for the computation of the Coulomb Potential):  28
 -----------------------------------------------------------------------
   1 S   43.800000
   1 S   26.550000
   2 S   29.780000
   2 S   20.220000
   3 S   20.150000
   3 S   14.530000
   3 S   10.480000
   4 S    9.990000
   4 S    7.490000
   4 S    5.620000
   5 S    5.240000
   5 S    4.040000
   5 S    3.110000
   5 S    2.400000
   2 P   31.200000
   3 P   20.800000
   4 P   14.040000
   4 P    7.600000
   5 P    5.220000
   5 P    3.000000
   3 D   23.550000
   4 D   15.370000
   4 D    8.060000
   5 D    5.370000
   5 D    3.000000
   4 F    5.000000
   4 F    3.000000
   5 G    3.500000


 BAS: List of all Elementary Cartesian Basis Functions
 =====================================================

 The numbering in the list below (to the right of the function characteristics) is referred
 to in print-outs of MO eigenvectors and Mulliken populations in the BAS representation
 (as contrasted to the SFO representation).

 Notes:
 1. The functions are characterized by a polynomial prefactor (powers of x,y,z and r) and
    an exponential decay factor alpha.
 2. Since the basis sets are specific for an atom TYPE, the individual functions occur on
    all atoms of that type.
 3. The word 'Core' in the left margin signals that it is a Core Function (CF) : not a
    degree of freedom in the valence set, but only used to ensure orthogonalization of
    the other valence basis functions on the frozen Core Orbitals.


 (power of) X  Y  Z  R     Alpha  on Atom
            ==========     =====     ==========

 U                                    1
                                  ---------------------------------------------------------------------------
            0  0  0  0  1060.000      1
            0  0  0  0   245.000      2
            0  0  0  0   108.800      3
            0  0  0  1   134.900      4
            0  0  0  1    47.200      5
            0  0  0  2    60.000      6
            0  0  0  2    25.900      7
            0  0  0  3    15.800      8
            0  0  0  3    11.100      9
            0  0  0  4    10.450     10
            0  0  0  4     7.250     11
            0  0  0  5     5.000     12
            0  0  0  5     3.300     13
            0  0  0  6     2.350     14
            0  0  0  6     1.550     15
            0  0  0  6     1.020     16
            1  0  0  0   245.000     17
            0  1  0  0   245.000     18
            0  0  1  0   245.000     19
            1  0  0  0    85.500     20
            0  1  0  0    85.500     21
            0  0  1  0    85.500     22
            1  0  0  0    44.200     23
            0  1  0  0    44.200     24
            0  0  1  0    44.200     25
            1  0  0  1    25.100     26
            0  1  0  1    25.100     27
            0  0  1  1    25.100     28
            1  0  0  1    18.100     29
            0  1  0  1    18.100     30
            0  0  1  1    18.100     31
            1  0  0  2    17.900     32
            0  1  0  2    17.900     33
            0  0  1  2    17.900     34
            1  0  0  2    12.300     35
            0  1  0  2    12.300     36
            0  0  1  2    12.300     37
            1  0  0  3     8.650     38
            0  1  0  3     8.650     39
            0  0  1  3     8.650     40
            1  0  0  3     6.000     41
            0  1  0  3     6.000     42
            0  0  1  3     6.000     43
            1  0  0  4     4.450     44
            0  1  0  4     4.450     45
            0  0  1  4     4.450     46
            1  0  0  4     3.000     47
            0  1  0  4     3.000     48
            0  0  1  4     3.000     49
            1  0  0  4     2.100     50
            0  1  0  4     2.100     51
            0  0  1  4     2.100     52
            2  0  0  0    33.250     53
            1  1  0  0    33.250     54
            1  0  1  0    33.250     55
            0  2  0  0    33.250     56
            0  1  1  0    33.250     57
            0  0  2  0    33.250     58
            2  0  0  0    22.050     59
            1  1  0  0    22.050     60
            1  0  1  0    22.050     61
            0  2  0  0    22.050     62
            0  1  1  0    22.050     63
            0  0  2  0    22.050     64
            2  0  0  1    15.250     65
            1  1  0  1    15.250     66
            1  0  1  1    15.250     67
            0  2  0  1    15.250     68
            0  1  1  1    15.250     69
            0  0  2  1    15.250     70
            2  0  0  1    10.550     71
            1  1  0  1    10.550     72
            1  0  1  1    10.550     73
            0  2  0  1    10.550     74
            0  1  1  1    10.550     75
            0  0  2  1    10.550     76
            2  0  0  2     7.250     77
            1  1  0  2     7.250     78
            1  0  1  2     7.250     79
            0  2  0  2     7.250     80
            0  1  1  2     7.250     81
            0  0  2  2     7.250     82
            2  0  0  2     4.650     83
            1  1  0  2     4.650     84
            1  0  1  2     4.650     85
            0  2  0  2     4.650     86
            0  1  1  2     4.650     87
            0  0  2  2     4.650     88
            2  0  0  3     2.900     89
            1  1  0  3     2.900     90
            1  0  1  3     2.900     91
            0  2  0  3     2.900     92
            0  1  1  3     2.900     93
            0  0  2  3     2.900     94
            2  0  0  3     1.600     95
            1  1  0  3     1.600     96
            1  0  1  3     1.600     97
            0  2  0  3     1.600     98
            0  1  1  3     1.600     99
            0  0  2  3     1.600    100
            2  0  0  3     0.880    101
            1  1  0  3     0.880    102
            1  0  1  3     0.880    103
            0  2  0  3     0.880    104
            0  1  1  3     0.880    105
            0  0  2  3     0.880    106
            3  0  0  0    17.450    107
            2  1  0  0    17.450    108
            2  0  1  0    17.450    109
            1  2  0  0    17.450    110
            1  1  1  0    17.450    111
            1  0  2  0    17.450    112
            0  3  0  0    17.450    113
            0  2  1  0    17.450    114
            0  1  2  0    17.450    115
            0  0  3  0    17.450    116
            3  0  0  0     9.600    117
            2  1  0  0     9.600    118
            2  0  1  0     9.600    119
            1  2  0  0     9.600    120
            1  1  1  0     9.600    121
            1  0  2  0     9.600    122
            0  3  0  0     9.600    123
            0  2  1  0     9.600    124
            0  1  2  0     9.600    125
            0  0  3  0     9.600    126
            3  0  0  1     5.800    127
            2  1  0  1     5.800    128
            2  0  1  1     5.800    129
            1  2  0  1     5.800    130
            1  1  1  1     5.800    131
            1  0  2  1     5.800    132
            0  3  0  1     5.800    133
            0  2  1  1     5.800    134
            0  1  2  1     5.800    135
            0  0  3  1     5.800    136
            3  0  0  1     3.000    137
            2  1  0  1     3.000    138
            2  0  1  1     3.000    139
            1  2  0  1     3.000    140
            1  1  1  1     3.000    141
            1  0  2  1     3.000    142
            0  3  0  1     3.000    143
            0  2  1  1     3.000    144
            0  1  2  1     3.000    145
            0  0  3  1     3.000    146
            3  0  0  1     1.390    147
            2  1  0  1     1.390    148
            2  0  1  1     1.390    149
            1  2  0  1     1.390    150
            1  1  1  1     1.390    151
            1  0  2  1     1.390    152
            0  3  0  1     1.390    153
            0  2  1  1     1.390    154
            0  1  2  1     1.390    155
            0  0  3  1     1.390    156
            1  0  0  5     1.550    157
            0  1  0  5     1.550    158
            0  0  1  5     1.550    159

 O                                    2    3
                                  ---------------------------------------------------------------------------
            0  0  0  0     9.800    160  190
            0  0  0  0     6.800    161  191
            0  0  0  1     7.580    162  192
            0  0  0  1     2.880    163  193
            0  0  0  1     1.720    164  194
            1  0  0  0     4.080    165  195
            0  1  0  0     4.080    166  196
            0  0  1  0     4.080    167  197
            1  0  0  0     2.080    168  198
            0  1  0  0     2.080    169  199
            0  0  1  0     2.080    170  200
            1  0  0  0     1.120    171  201
            0  1  0  0     1.120    172  202
            0  0  1  0     1.120    173  203
            2  0  0  0     2.000    174  204
            1  1  0  0     2.000    175  205
            1  0  1  0     2.000    176  206
            0  2  0  0     2.000    177  207
            0  1  1  0     2.000    178  208
            0  0  2  0     2.000    179  209
            3  0  0  0     3.000    180  210
            2  1  0  0     3.000    181  211
            2  0  1  0     3.000    182  212
            1  2  0  0     3.000    183  213
            1  1  1  0     3.000    184  214
            1  0  2  0     3.000    185  215
            0  3  0  0     3.000    186  216
            0  2  1  0     3.000    187  217
            0  1  2  0     3.000    188  218
            0  0  3  0     3.000    189  219

 Cl                                   4    5
                                  ---------------------------------------------------------------------------
            0  0  0  0    20.300    220  258
            0  0  0  0    15.250    221  259
            0  0  0  1     6.250    222  260
            0  0  0  1     4.450    223  261
            1  0  0  0     8.850    224  262
            0  1  0  0     8.850    225  263
            0  0  1  0     8.850    226  264
            1  0  0  0     5.050    227  265
            0  1  0  0     5.050    228  266
            0  0  1  0     5.050    229  267
            0  0  0  2     3.450    230  268
            0  0  0  2     2.300    231  269
            0  0  0  2     1.600    232  270
            1  0  0  1     3.350    233  271
            0  1  0  1     3.350    234  272
            0  0  1  1     3.350    235  273
            1  0  0  1     2.050    236  274
            0  1  0  1     2.050    237  275
            0  0  1  1     2.050    238  276
            1  0  0  1     1.200    239  277
            0  1  0  1     1.200    240  278
            0  0  1  1     1.200    241  279
            2  0  0  0     2.000    242  280
            1  1  0  0     2.000    243  281
            1  0  1  0     2.000    244  282
            0  2  0  0     2.000    245  283
            0  1  1  0     2.000    246  284
            0  0  2  0     2.000    247  285
            3  0  0  0     2.000    248  286
            2  1  0  0     2.000    249  287
            2  0  1  0     2.000    250  288
            1  2  0  0     2.000    251  289
            1  1  1  0     2.000    252  290
            1  0  2  0     2.000    253  291
            0  3  0  0     2.000    254  292
            0  2  1  0     2.000    255  293
            0  1  2  0     2.000    256  294
            0  0  3  0     2.000    257  295

 Ar                                   6    7
                                  ---------------------------------------------------------------------------
            0  0  0  0    21.900    296  334
            0  0  0  0    16.300    297  335
            0  0  0  1     6.650    298  336
            0  0  0  1     4.750    299  337
            1  0  0  0     9.300    300  338
            0  1  0  0     9.300    301  339
            0  0  1  0     9.300    302  340
            1  0  0  0     5.450    303  341
            0  1  0  0     5.450    304  342
            0  0  1  0     5.450    305  343
            0  0  0  2     4.100    306  344
            0  0  0  2     2.600    307  345
            0  0  0  2     1.750    308  346
            1  0  0  1     3.200    309  347
            0  1  0  1     3.200    310  348
            0  0  1  1     3.200    311  349
            1  0  0  1     1.900    312  350
            0  1  0  1     1.900    313  351
            0  0  1  1     1.900    314  352
            1  0  0  1     1.200    315  353
            0  1  0  1     1.200    316  354
            0  0  1  1     1.200    317  355
            2  0  0  0     2.200    318  356
            1  1  0  0     2.200    319  357
            1  0  1  0     2.200    320  358
            0  2  0  0     2.200    321  359
            0  1  1  0     2.200    322  360
            0  0  2  0     2.200    323  361
            3  0  0  0     2.500    324  362
            2  1  0  0     2.500    325  363
            2  0  1  0     2.500    326  364
            1  2  0  0     2.500    327  365
            1  1  1  0     2.500    328  366
            1  0  2  0     2.500    329  367
            0  3  0  0     2.500    330  368
            0  2  1  0     2.500    331  369
            0  1  2  0     2.500    332  370
            0  0  3  0     2.500    333  371

 Total number of charge fitting functions (nprimf)       971
 Total number of Cartesian basis functions (naos)        371
 Total number of Cartesian core functions  (ncos)          0

1
 ***************************************************************************************************



                                              ***********************
                                              *  T E C H N I C A L  *
                                              ***********************
  



 =============================================================
 P A R A L L E L I Z A T I O N  and  V E C T O R I Z A T I O N
 =============================================================
  
 Nr of parallel processes:                               16
 Maximum vector length in NumInt loops:                 128



 =====================
 S C F   U P D A T E S
 =====================
  
 Max. nr. of cycles:                               300
 Convergence criterion:                              0.0000010000
   secondary criterion:                              0.0010000000

 Mix parameter (when DIIS does not apply):           0.2000000000
 Mixed ADIIS+SDIIS will be used                  
    Max number of expansion vectors:                10
    Pure ADIIS when Max([F,P]) is above              0.1000000000
    Pure SDIIS when Max([F,P]) is below              0.0010000000
 Automatic ElectronSmearing (in case of problematic SCF convergence) disabled



 =================
 P R E C I S I O N  ***  (General: NumInt, NeglectFunctionTails, ...)  ***
 =================
  

 NumInt:           Target precision:                 4.0000000000
 -------           Initial precision:                4.0000000000
                   Min. precision (optimization):    4.0000000000

 Neglect Functions:          Basis functions:        0.1000000000E-13
 ------------------          Fit functions:          0.1000000000E-13



 ===========================
 L I N E A R   S C A L I N G
 ===========================
  

 Cut-off radii density fit:                        0.1000000000E-07
 Overlap cut-off criterion AO matrix elements:     0.1000000000E-05
 Cut-offs for Coulomb potential and fitted density:0.1000000000E-07
 Cut-off criterion for Coulomb multipole terms:    0.1000000000E-07
 Progressive Convergence parameter:                 0.000000000    
1
 ***************************************************************************************************



                                            ***************************
                                            *  C O M P U T A T I O N  *
                                            ***************************
  



 ==============================
 Double group spinor symmetries  ***  (Spin-Orbit)  ***
 ==============================
  

 The double group Lowdins are spinors adapted to the irreducible representations
 of the double group. These double group Lowdins are linear combinations of
 products of the single group Lowdins and the spinfunctions. The single group
 Lowdins are  orthonormalized symmetrized fragment orbitals (SFOs).
 The complex coefficients that are used in the linear combinations are also
 known as Clebsch-Gordan coefficients.
 The spin functions (alpha,beta) span irrep e1/2


          A * e 1/2 :      A1/2

  A1/2:1 = A.alpha
  A1/2:1 = A.beta

 The table summarizes which one-electron orbital irreps (single group) couple
 with spin to which spinor irreps (double group).
 The Clebsch-Gordan series for each direct product: orbital irrep times e1/2.
                  A
            -------
  A1/2           X


 dimension (equal to the max. nr. of electrons per spinor) of the double group irreps
 ------------------------------------------------------------------------------------
  A1/2           1

 Number of elements of the density matrix on this node (used, total):     12720     69006



 ===========================================
 Numerical Integration : Fuzzy Cells (Becke)
 ===========================================
  
 Becke grid quality: NORMAL         
  
 Lebedev angular grid order:             min:  11 max:  23
 Nr. of radial points:                   min:  49 max: 175

 Total nr. of points:      73608
 Nr. of blocks:              576
 Block length:               128
 Nr. of dummy points:        120


 Test of Precision of the Numerical Integration Grid
 ===================================================

 Integral of the Total Core Density:                   0.00000000000000



 ========================
 Density Fitting (zlmFit)
 ========================
  
[...]
   8  2.5291     0.53634E-06  0.24092E-04  0.29400E-02  0.10570E-03  0.19398E-04   0.0000     -0.10741E-04
   9  2.9437     0.77968E-08 -0.37136E-04 -0.90848E-05  0.29660E-03  0.10440E-03 -0.88197E-04   0.0000    
  10  2.9606     0.10597E-04  0.12068E-01  0.23015E-04 -0.66964E-03   0.0000      0.12189E-03  0.62597E-04
  11  3.0353     0.33750E-06 -0.96752E-04 -0.55107E-03  0.18982E-02 -0.16601E-03  0.77130E-03   0.0000    
  12  3.0356     0.40070E-04 -0.10529E-03  0.23157E-01 -0.81984E-03 -0.52830E-04   0.0000      0.13584E-02
  13  3.2480     0.29462E-04  0.19188E-01 -0.37209E-05  0.14157E-02   0.0000     -0.22402E-03 -0.24647E-04
  14  3.2883     0.23710E-06 -0.22297E-04 -0.75044E-03  0.15257E-02 -0.14344E-03  0.17673E-03   0.0000    
  15  3.4820     0.13292E-05 -0.11576E-03 -0.11883E-02  0.37208E-02 -0.52743E-03 -0.18179E-03   0.0000    
  16  3.4917     0.10089E-03  0.34300E-01 -0.50568E-03 -0.40233E-03   0.0000      0.18928E-04 -0.15903E-02

 no.  E/eV          f           |mu| (x,y,z)
 --------------------------- --------------------------------------
   1  2.1963     0.30903E-04  0.28626E-05  0.29637E-05  0.23965E-01
   2  2.2212     0.11207E-03  0.11464E-05  0.45380E-01  0.38062E-05
   4  2.2634     0.64031E-05  0.10746E-01  0.64640E-05  0.74830E-05
   6  2.3481     0.60356E-06  0.32391E-02  0.59206E-05  0.25168E-05
   7  2.4995     0.82204E-03  0.23155E-04  0.28011E-04  0.11586    
   8  2.5291     0.53634E-06  0.30931E-04  0.29400E-02  0.10625E-03
   9  2.9437     0.77968E-08  0.11081E-03  0.88663E-04  0.29660E-03
  10  2.9606     0.10597E-04  0.12068E-01  0.12405E-03  0.67256E-03
  11  3.0353     0.33750E-06  0.19215E-03  0.94794E-03  0.18982E-02
  12  3.0356     0.40070E-04  0.11780E-03  0.23157E-01  0.15866E-02
  13  3.2480     0.29462E-04  0.19188E-01  0.22405E-03  0.14159E-02
  14  3.2883     0.23710E-06  0.14516E-03  0.77097E-03  0.15257E-02
  15  3.4820     0.13292E-05  0.53998E-03  0.12022E-02  0.37208E-02
  16  3.4917     0.10089E-03  0.34300E-01  0.50603E-03  0.16404E-02
 
                                                        
 Major MO -> MO transitions for the above excitations   
                                                        
    Excitation  Occupied to virtual  Contribution       

     Nr.          orbitals           weight (sum=1)


     1: 178 a1/2   -> 180 a1/2      0.2035
     1: 177 a1/2   -> 179 a1/2      0.2035
     1: 166 a1/2   -> 179 a1/2      0.1213
     1: 165 a1/2   -> 180 a1/2      0.1213
     1: 178 a1/2   -> 179 a1/2      0.0688
     1: 177 a1/2   -> 180 a1/2      0.0688
     1: 165 a1/2   -> 179 a1/2      0.0275
     1: 166 a1/2   -> 180 a1/2      0.0275
     1: 177 a1/2   -> 181 a1/2      0.0231
     1: 178 a1/2   -> 182 a1/2      0.0231
     1: 165 a1/2   -> 182 a1/2      0.0192
     1: 166 a1/2   -> 181 a1/2      0.0192
     1: 170 a1/2   -> 180 a1/2      0.0076
     1: 169 a1/2   -> 179 a1/2      0.0076
     1: 167 a1/2   -> 179 a1/2      0.0060
     1: 168 a1/2   -> 180 a1/2      0.0060
     1: 142 a1/2   -> 179 a1/2      0.0023
     1: 141 a1/2   -> 180 a1/2      0.0023
     1: 165 a1/2   -> 186 a1/2      0.0015
     1: 166 a1/2   -> 185 a1/2      0.0015


     2: 178 a1/2   -> 179 a1/2      0.2162
     2: 177 a1/2   -> 180 a1/2      0.2162
     2: 165 a1/2   -> 179 a1/2      0.1256
     2: 166 a1/2   -> 180 a1/2      0.1256
     2: 178 a1/2   -> 180 a1/2      0.0731
     2: 177 a1/2   -> 179 a1/2      0.0731
     2: 166 a1/2   -> 179 a1/2      0.0285
     2: 165 a1/2   -> 180 a1/2      0.0285
     2: 177 a1/2   -> 182 a1/2      0.0144
     2: 178 a1/2   -> 181 a1/2      0.0144
     2: 166 a1/2   -> 182 a1/2      0.0106
     2: 165 a1/2   -> 181 a1/2      0.0106
     2: 169 a1/2   -> 180 a1/2      0.0095
     2: 170 a1/2   -> 179 a1/2      0.0095
     2: 167 a1/2   -> 180 a1/2      0.0055
     2: 168 a1/2   -> 179 a1/2      0.0055
     2: 142 a1/2   -> 180 a1/2      0.0024
     2: 141 a1/2   -> 179 a1/2      0.0024
     2: 169 a1/2   -> 179 a1/2      0.0014
     2: 170 a1/2   -> 180 a1/2      0.0014


     3: 178 a1/2   -> 181 a1/2      0.2120
     3: 177 a1/2   -> 182 a1/2      0.2120
     3: 165 a1/2   -> 181 a1/2      0.1484
     3: 166 a1/2   -> 182 a1/2      0.1484
     3: 178 a1/2   -> 179 a1/2      0.0371
     3: 177 a1/2   -> 180 a1/2      0.0371
     3: 178 a1/2   -> 182 a1/2      0.0324
     3: 177 a1/2   -> 181 a1/2      0.0324
     3: 166 a1/2   -> 180 a1/2      0.0221
     3: 165 a1/2   -> 179 a1/2      0.0221
     3: 165 a1/2   -> 182 a1/2      0.0133
     3: 166 a1/2   -> 181 a1/2      0.0133
     3: 169 a1/2   -> 182 a1/2      0.0066
     3: 170 a1/2   -> 181 a1/2      0.0066
     3: 167 a1/2   -> 182 a1/2      0.0042
     3: 168 a1/2   -> 181 a1/2      0.0042
     3: 141 a1/2   -> 181 a1/2      0.0028
     3: 142 a1/2   -> 182 a1/2      0.0028
     3: 165 a1/2   -> 185 a1/2      0.0023
     3: 166 a1/2   -> 186 a1/2      0.0023


     4: 178 a1/2   -> 182 a1/2      0.2104
     4: 177 a1/2   -> 181 a1/2      0.2104
     4: 165 a1/2   -> 182 a1/2      0.1498
     4: 166 a1/2   -> 181 a1/2      0.1498
     4: 177 a1/2   -> 179 a1/2      0.0378
     4: 178 a1/2   -> 180 a1/2      0.0378
     4: 177 a1/2   -> 182 a1/2      0.0322
     4: 178 a1/2   -> 181 a1/2      0.0322
     4: 165 a1/2   -> 180 a1/2      0.0182
     4: 166 a1/2   -> 179 a1/2      0.0182
     4: 166 a1/2   -> 182 a1/2      0.0134
     4: 165 a1/2   -> 181 a1/2      0.0134
     4: 170 a1/2   -> 182 a1/2      0.0052
     4: 169 a1/2   -> 181 a1/2      0.0052
     4: 167 a1/2   -> 181 a1/2      0.0043
     4: 168 a1/2   -> 182 a1/2      0.0043
     4: 142 a1/2   -> 181 a1/2      0.0027
     4: 141 a1/2   -> 182 a1/2      0.0027
     4: 177 a1/2   -> 183 a1/2      0.0021
     4: 178 a1/2   -> 184 a1/2      0.0021


     5: 178 a1/2   -> 179 a1/2      0.2617
     5: 177 a1/2   -> 180 a1/2      0.2617
     5: 166 a1/2   -> 180 a1/2      0.1241
     5: 165 a1/2   -> 179 a1/2      0.1241
     5: 177 a1/2   -> 182 a1/2      0.0333
     5: 178 a1/2   -> 181 a1/2      0.0333
     5: 166 a1/2   -> 182 a1/2      0.0218
     5: 165 a1/2   -> 181 a1/2      0.0218
     5: 178 a1/2   -> 185 a1/2      0.0064
     5: 177 a1/2   -> 186 a1/2      0.0064
     5: 165 a1/2   -> 185 a1/2      0.0060
     5: 166 a1/2   -> 186 a1/2      0.0060
     5: 170 a1/2   -> 180 a1/2      0.0057
     5: 169 a1/2   -> 179 a1/2      0.0057
     5: 169 a1/2   -> 180 a1/2      0.0051
     5: 170 a1/2   -> 179 a1/2      0.0051
     5: 178 a1/2   -> 182 a1/2      0.0051
     5: 177 a1/2   -> 181 a1/2      0.0051
     5: 177 a1/2   -> 184 a1/2      0.0039
     5: 178 a1/2   -> 183 a1/2      0.0039


     6: 177 a1/2   -> 179 a1/2      0.2575
     6: 178 a1/2   -> 180 a1/2      0.2575
     6: 166 a1/2   -> 179 a1/2      0.1197
     6: 165 a1/2   -> 180 a1/2      0.1197
     6: 177 a1/2   -> 181 a1/2      0.0350
     6: 178 a1/2   -> 182 a1/2      0.0350
     6: 166 a1/2   -> 181 a1/2      0.0212
     6: 165 a1/2   -> 182 a1/2      0.0212
     6: 177 a1/2   -> 183 a1/2      0.0141
     6: 178 a1/2   -> 184 a1/2      0.0141
     6: 166 a1/2   -> 183 a1/2      0.0115
     6: 165 a1/2   -> 184 a1/2      0.0115
     6: 178 a1/2   -> 181 a1/2      0.0054
     6: 177 a1/2   -> 182 a1/2      0.0054
     6: 168 a1/2   -> 179 a1/2      0.0036
     6: 167 a1/2   -> 180 a1/2      0.0036
     6: 169 a1/2   -> 180 a1/2      0.0032
     6: 170 a1/2   -> 179 a1/2      0.0032
     6: 170 a1/2   -> 180 a1/2      0.0029
     6: 169 a1/2   -> 179 a1/2      0.0029


     7: 178 a1/2   -> 182 a1/2      0.1976
     7: 177 a1/2   -> 181 a1/2      0.1976
     7: 165 a1/2   -> 182 a1/2      0.1160
     7: 166 a1/2   -> 181 a1/2      0.1160
     7: 178 a1/2   -> 180 a1/2      0.0262
     7: 177 a1/2   -> 179 a1/2      0.0262
     7: 177 a1/2   -> 185 a1/2      0.0248
     7: 178 a1/2   -> 186 a1/2      0.0248
     7: 165 a1/2   -> 186 a1/2      0.0248
     7: 166 a1/2   -> 185 a1/2      0.0248
     7: 177 a1/2   -> 186 a1/2      0.0222
     7: 178 a1/2   -> 185 a1/2      0.0222
     7: 165 a1/2   -> 185 a1/2      0.0159
     7: 166 a1/2   -> 186 a1/2      0.0159
     7: 178 a1/2   -> 181 a1/2      0.0117
     7: 177 a1/2   -> 182 a1/2      0.0117
     7: 166 a1/2   -> 179 a1/2      0.0111
     7: 165 a1/2   -> 180 a1/2      0.0111
     7: 177 a1/2   -> 180 a1/2      0.0089
     7: 178 a1/2   -> 179 a1/2      0.0089


     8: 178 a1/2   -> 181 a1/2      0.2292
     8: 177 a1/2   -> 182 a1/2      0.2292
     8: 166 a1/2   -> 182 a1/2      0.1162
     8: 165 a1/2   -> 181 a1/2      0.1162
     8: 177 a1/2   -> 186 a1/2      0.0231
     8: 178 a1/2   -> 185 a1/2      0.0231
     8: 166 a1/2   -> 186 a1/2      0.0215
     8: 165 a1/2   -> 185 a1/2      0.0215
     8: 177 a1/2   -> 185 a1/2      0.0206
     8: 178 a1/2   -> 186 a1/2      0.0206
     8: 178 a1/2   -> 179 a1/2      0.0140
     8: 177 a1/2   -> 180 a1/2      0.0140
     8: 166 a1/2   -> 185 a1/2      0.0137
     8: 165 a1/2   -> 186 a1/2      0.0137
     8: 178 a1/2   -> 182 a1/2      0.0135
     8: 177 a1/2   -> 181 a1/2      0.0135
     8: 166 a1/2   -> 180 a1/2      0.0064
     8: 165 a1/2   -> 179 a1/2      0.0064
     8: 169 a1/2   -> 182 a1/2      0.0054
     8: 170 a1/2   -> 181 a1/2      0.0054


     9: 178 a1/2   -> 185 a1/2      0.2198
     9: 177 a1/2   -> 186 a1/2      0.2190
     9: 165 a1/2   -> 185 a1/2      0.1330
     9: 166 a1/2   -> 186 a1/2      0.1325
     9: 178 a1/2   -> 183 a1/2      0.0586
     9: 177 a1/2   -> 184 a1/2      0.0585
     9: 165 a1/2   -> 183 a1/2      0.0377
     9: 166 a1/2   -> 184 a1/2      0.0377
     9: 165 a1/2   -> 186 a1/2      0.0072
     9: 166 a1/2   -> 185 a1/2      0.0071
     9: 170 a1/2   -> 186 a1/2      0.0065
     9: 169 a1/2   -> 185 a1/2      0.0065
     9: 168 a1/2   -> 186 a1/2      0.0053
     9: 167 a1/2   -> 185 a1/2      0.0053
     9: 178 a1/2   -> 186 a1/2      0.0048
     9: 177 a1/2   -> 185 a1/2      0.0046
     9: 177 a1/2   -> 180 a1/2      0.0043
     9: 178 a1/2   -> 179 a1/2      0.0043
     9: 141 a1/2   -> 185 a1/2      0.0027
     9: 142 a1/2   -> 186 a1/2      0.0027


    10: 178 a1/2   -> 186 a1/2      0.2791
    10: 177 a1/2   -> 185 a1/2      0.2791
    10: 165 a1/2   -> 186 a1/2      0.1670
    10: 166 a1/2   -> 185 a1/2      0.1670
    10: 166 a1/2   -> 186 a1/2      0.0091
    10: 165 a1/2   -> 185 a1/2      0.0090
    10: 169 a1/2   -> 186 a1/2      0.0071
    10: 170 a1/2   -> 185 a1/2      0.0071
    10: 178 a1/2   -> 180 a1/2      0.0069
    10: 177 a1/2   -> 179 a1/2      0.0068
    10: 177 a1/2   -> 186 a1/2      0.0061
    10: 167 a1/2   -> 186 a1/2      0.0060
    10: 168 a1/2   -> 185 a1/2      0.0060
    10: 178 a1/2   -> 185 a1/2      0.0060
    10: 142 a1/2   -> 185 a1/2      0.0032
    10: 141 a1/2   -> 186 a1/2      0.0032
    10: 169 a1/2   -> 185 a1/2      0.0024
    10: 170 a1/2   -> 186 a1/2      0.0024
    10: 162 a1/2   -> 186 a1/2      0.0020
    10: 161 a1/2   -> 185 a1/2      0.0020


    11: 178 a1/2   -> 184 a1/2      0.2463
    11: 177 a1/2   -> 183 a1/2      0.2461
    11: 165 a1/2   -> 184 a1/2      0.1387
    11: 166 a1/2   -> 183 a1/2      0.1387
    11: 178 a1/2   -> 183 a1/2      0.0487
    11: 177 a1/2   -> 184 a1/2      0.0486
    11: 166 a1/2   -> 184 a1/2      0.0169
    11: 165 a1/2   -> 183 a1/2      0.0169
    11: 169 a1/2   -> 183 a1/2      0.0062
    11: 170 a1/2   -> 184 a1/2      0.0062
    11: 177 a1/2   -> 185 a1/2      0.0061
    11: 178 a1/2   -> 186 a1/2      0.0061
    11: 178 a1/2   -> 185 a1/2      0.0055
    11: 177 a1/2   -> 186 a1/2      0.0055
    11: 168 a1/2   -> 184 a1/2      0.0051
    11: 167 a1/2   -> 183 a1/2      0.0051
    11: 165 a1/2   -> 186 a1/2      0.0031
    11: 166 a1/2   -> 185 a1/2      0.0031
    11: 141 a1/2   -> 184 a1/2      0.0025
    11: 142 a1/2   -> 183 a1/2      0.0025


    12: 177 a1/2   -> 184 a1/2      0.2489
    12: 178 a1/2   -> 183 a1/2      0.2487
    12: 166 a1/2   -> 184 a1/2      0.1376
    12: 165 a1/2   -> 183 a1/2      0.1376
    12: 177 a1/2   -> 183 a1/2      0.0487
    12: 178 a1/2   -> 184 a1/2      0.0487
    12: 165 a1/2   -> 184 a1/2      0.0168
    12: 166 a1/2   -> 183 a1/2      0.0167
    12: 169 a1/2   -> 184 a1/2      0.0084
    12: 170 a1/2   -> 183 a1/2      0.0084
    12: 177 a1/2   -> 185 a1/2      0.0048
    12: 178 a1/2   -> 186 a1/2      0.0048
    12: 168 a1/2   -> 183 a1/2      0.0046
    12: 167 a1/2   -> 184 a1/2      0.0046
    12: 177 a1/2   -> 186 a1/2      0.0044
    12: 178 a1/2   -> 185 a1/2      0.0044
    12: 166 a1/2   -> 186 a1/2      0.0035
    12: 165 a1/2   -> 185 a1/2      0.0035
    12: 165 a1/2   -> 186 a1/2      0.0026
    12: 166 a1/2   -> 185 a1/2      0.0026


    13: 177 a1/2   -> 183 a1/2      0.2949
    13: 178 a1/2   -> 184 a1/2      0.2943
    13: 166 a1/2   -> 183 a1/2      0.1211
    13: 165 a1/2   -> 184 a1/2      0.1210
    13: 177 a1/2   -> 179 a1/2      0.0336
    13: 178 a1/2   -> 180 a1/2      0.0335
    13: 177 a1/2   -> 184 a1/2      0.0137
    13: 178 a1/2   -> 183 a1/2      0.0136
    13: 169 a1/2   -> 183 a1/2      0.0064
    13: 170 a1/2   -> 184 a1/2      0.0064
    13: 170 a1/2   -> 183 a1/2      0.0043
    13: 169 a1/2   -> 184 a1/2      0.0042
    13: 167 a1/2   -> 183 a1/2      0.0035
    13: 168 a1/2   -> 184 a1/2      0.0034
    13: 168 a1/2   -> 183 a1/2      0.0032
    13: 167 a1/2   -> 184 a1/2      0.0032
    13: 166 a1/2   -> 184 a1/2      0.0021
    13: 142 a1/2   -> 183 a1/2      0.0021
    13: 141 a1/2   -> 184 a1/2      0.0021
    13: 165 a1/2   -> 183 a1/2      0.0020


    14: 178 a1/2   -> 183 a1/2      0.2472
    14: 177 a1/2   -> 184 a1/2      0.2456
    14: 165 a1/2   -> 183 a1/2      0.0932
    14: 166 a1/2   -> 184 a1/2      0.0928
    14: 177 a1/2   -> 186 a1/2      0.0598
    14: 178 a1/2   -> 185 a1/2      0.0573
    14: 178 a1/2   -> 179 a1/2      0.0265
    14: 177 a1/2   -> 180 a1/2      0.0262
    14: 166 a1/2   -> 186 a1/2      0.0240
    14: 165 a1/2   -> 185 a1/2      0.0230
    14: 177 a1/2   -> 183 a1/2      0.0116
    14: 178 a1/2   -> 184 a1/2      0.0112
    14: 170 a1/2   -> 183 a1/2      0.0060
    14: 169 a1/2   -> 184 a1/2      0.0059
    14: 169 a1/2   -> 183 a1/2      0.0040
    14: 170 a1/2   -> 184 a1/2      0.0039
    14: 168 a1/2   -> 183 a1/2      0.0029
    14: 167 a1/2   -> 184 a1/2      0.0029
    14: 168 a1/2   -> 184 a1/2      0.0027
    14: 167 a1/2   -> 183 a1/2      0.0027


    15: 176 a1/2   -> 179 a1/2      0.2479
    15: 175 a1/2   -> 180 a1/2      0.2132
    15: 173 a1/2   -> 179 a1/2      0.1212
    15: 174 a1/2   -> 180 a1/2      0.1056
    15: 169 a1/2   -> 179 a1/2      0.0330
    15: 170 a1/2   -> 179 a1/2      0.0329
    15: 170 a1/2   -> 180 a1/2      0.0317
    15: 169 a1/2   -> 180 a1/2      0.0252
    15: 171 a1/2   -> 179 a1/2      0.0202
    15: 172 a1/2   -> 180 a1/2      0.0200
    15: 176 a1/2   -> 180 a1/2      0.0190
    15: 172 a1/2   -> 179 a1/2      0.0166
    15: 174 a1/2   -> 179 a1/2      0.0139
    15: 171 a1/2   -> 180 a1/2      0.0125
    15: 173 a1/2   -> 180 a1/2      0.0095
    15: 163 a1/2   -> 179 a1/2      0.0063
    15: 175 a1/2   -> 179 a1/2      0.0062
    15: 164 a1/2   -> 180 a1/2      0.0062
    15: 178 a1/2   -> 181 a1/2      0.0034
    15: 164 a1/2   -> 179 a1/2      0.0030


    16: 176 a1/2   -> 180 a1/2      0.2041
    16: 175 a1/2   -> 179 a1/2      0.2040
    16: 173 a1/2   -> 180 a1/2      0.1372
    16: 174 a1/2   -> 179 a1/2      0.1309
    16: 169 a1/2   -> 180 a1/2      0.0365
    16: 170 a1/2   -> 179 a1/2      0.0352
    16: 170 a1/2   -> 180 a1/2      0.0327
    16: 169 a1/2   -> 179 a1/2      0.0316
    16: 171 a1/2   -> 180 a1/2      0.0218
    16: 172 a1/2   -> 179 a1/2      0.0212
    16: 172 a1/2   -> 180 a1/2      0.0156
    16: 171 a1/2   -> 179 a1/2      0.0155
    16: 174 a1/2   -> 180 a1/2      0.0141
    16: 173 a1/2   -> 179 a1/2      0.0133
    16: 175 a1/2   -> 180 a1/2      0.0107
    16: 176 a1/2   -> 179 a1/2      0.0102
    16: 163 a1/2   -> 180 a1/2      0.0070
    16: 164 a1/2   -> 179 a1/2      0.0068
    16: 164 a1/2   -> 180 a1/2      0.0029
    16: 163 a1/2   -> 179 a1/2      0.0029
 

 All SPIN-POLARIZED excitation energies

 no.     E/a.u.        E/eV      f           tau/s        Symmetry
 ------------------------------------------------------------------
   1:     0.08071      2.19631   0.3090E-04   0.1546E-03  A           
   2:     0.08163      2.22122   0.1121E-03   0.4168E-04  A           
   3:     0.08312      2.26186   0.1247E-11               A           
   4:     0.08318      2.26342   0.6403E-05   0.7025E-03  A           
   5:     0.08560      2.32925   0.1033E-10               A           
   6:     0.08629      2.34808   0.6036E-06   0.6925E-02  A           
   7:     0.09186      2.49952   0.8220E-03   0.4487E-05  A           
   8:     0.09294      2.52907   0.5363E-06   0.6718E-02  A           
   9:     0.10818      2.94375   0.7797E-08   0.3411      A           
  10:     0.10880      2.96061   0.1060E-04   0.2481E-03  A           
  11:     0.11155      3.03533   0.3375E-06   0.7411E-02  A           
  12:     0.11156      3.03559   0.4007E-04   0.6241E-04  A           
  13:     0.11936      3.24801   0.2946E-04   0.7415E-04  A           
  14:     0.12084      3.28830   0.2371E-06   0.8989E-02  A           
  15:     0.12796      3.48196   0.1329E-05   0.1430E-02  A           
  16:     0.12832      3.49166   0.1009E-03   0.1874E-04  A           

 tau: electric dipole radiative lifetime (in seconds)

 Unrelaxed approximate excited state dipole moments

 no.       E/eV     Excited state dipole moment (Debye)   Symmetry
 ------------------------------------------------------------------
   1:      2.19631    -0.00000     4.77824    -0.00003    A
   2:      2.22122    -0.00001     4.70808     0.00006    A
   3:      2.26186     0.00000     5.11867     0.00006    A
   4:      2.26342     0.00001     5.12284    -0.00001    A
   5:      2.32925    -0.00002     4.61431    -0.00009    A
   6:      2.34808     0.00001     4.63955     0.00007    A
   7:      2.49952     0.00002     4.91689     0.00011    A
   8:      2.52907     0.00004     4.89624    -0.00030    A
   9:      2.94375    -0.00001     4.97488    -0.00012    A
  10:      2.96061    -0.00032     4.98872     0.00001    A
  11:      3.03533    -0.00026     4.54759     0.00063    A
  12:      3.03559    -0.00060     4.55136     0.00015    A
  13:      3.24801     0.00152     3.92332    -0.00022    A
  14:      3.28830     0.00130     3.95779    -0.00141    A
  15:      3.48196     0.00220     1.35514     0.00450    A
  16:      3.49166    -0.00210     1.37907    -0.00284    A


 Normal termination of EXCITATION program part





 =======================================================================
 Electrostatic potential at the Nuclei due to electrons and other nuclei
 =======================================================================
  
         Atom                  Potential
         ----                  ---------
     1)   U                 807.58867745
     2)   O                  22.35069427
     3)   O                  22.35069462
     4)   Cl                 64.89865343
     5)   Cl                 64.89865346
     6)   Ar                 70.20099043
     7)   Ar                 70.20099025
 Mulliken charges used for AMS results%charges...


    =====================
     CALCULATION RESULTS
    =====================

Energy (hartree)           -93.55594773


--------------
Atomic charges
--------------
  Index   Atom    Charge
      1      U    1.6814
      2      O   -0.5682
      3      O   -0.5682
      4     Cl   -0.3480
      5     Cl   -0.3480
      6     Ar    0.0755
      7     Ar    0.0755


Dipole moment vector    (Debye):    -0.00000167    6.34471570   -0.00000189
              magnitude (Debye):     6.34471570


AMS application finished. Exiting.
NORMAL TERMINATION
     Total cpu time:   56556.74
  Total system time:    1740.18
 Total elapsed time:   58383.69
