 Entering Gaussian System, Link 0=/home/pcmt/gaussian/g16.C.01/g16/g16
 AtFile(1): /home/vallet/basis/U-ECP60MWB_SEG
 AtFile(1): /home/vallet/basis/U-ECP60MWB
 Initial command:
 /home/pcmt/gaussian/g16.C.01/g16/l1.exe "/state/partition2/vallet/856293.phlam-s-sakura/Gau-154579.inp" -scrdir="/state/partition2/vallet/856293.phlam-s-sakura/"
 Entering Link 1 = /home/pcmt/gaussian/g16.C.01/g16/l1.exe PID=    154580.
  
 Copyright (c) 1988-2019, Gaussian, Inc.  All Rights Reserved.
  
 This is part of the Gaussian(R) 16 program.  It is based on
 the Gaussian(R) 09 system (copyright 2009, Gaussian, Inc.),
 the Gaussian(R) 03 system (copyright 2003, Gaussian, Inc.),
 the Gaussian(R) 98 system (copyright 1998, Gaussian, Inc.),
 the Gaussian(R) 94 system (copyright 1995, Gaussian, Inc.),
 the Gaussian 92(TM) system (copyright 1992, Gaussian, Inc.),
 the Gaussian 90(TM) system (copyright 1990, Gaussian, Inc.),
 the Gaussian 88(TM) system (copyright 1988, Gaussian, Inc.),
 the Gaussian 86(TM) system (copyright 1986, Carnegie Mellon
 University), and the Gaussian 82(TM) system (copyright 1983,
 Carnegie Mellon University). Gaussian is a federally registered
 trademark of Gaussian, Inc.
  
 This software contains proprietary and confidential information,
 including trade secrets, belonging to Gaussian, Inc.
  
 This software is provided under written license and may be
 used, copied, transmitted, or stored only in accord with that
 written license.
  
 The following legend is applicable only to US Government
 contracts under FAR:
  
                    RESTRICTED RIGHTS LEGEND
  
 Use, reproduction and disclosure by the US Government is
 subject to restrictions as set forth in subparagraphs (a)
 and (c) of the Commercial Computer Software - Restricted
 Rights clause in FAR 52.227-19.
  
 Gaussian, Inc.
 340 Quinnipiac St., Bldg. 40, Wallingford CT 06492
  
  
 ---------------------------------------------------------------
 Warning -- This program may not be used in any manner that
 competes with the business of Gaussian, Inc. or will provide
 assistance to any competitor of Gaussian, Inc.  The licensee
 of this program is prohibited from giving any competitor of
 Gaussian, Inc. access to this program.  By using this program,
 the user acknowledges that Gaussian, Inc. is engaged in the
 business of creating and licensing software in the field of
 computational chemistry and represents and warrants to the
 licensee that it is not a competitor of Gaussian, Inc. and that
 it will not use this program in any manner prohibited above.
 ---------------------------------------------------------------
  

 Cite this work as:
 Gaussian 16, Revision C.01,
 M. J. Frisch, G. W. Trucks, H. B. Schlegel, G. E. Scuseria, 
 M. A. Robb, J. R. Cheeseman, G. Scalmani, V. Barone, 
 G. A. Petersson, H. Nakatsuji, X. Li, M. Caricato, A. V. Marenich, 
 J. Bloino, B. G. Janesko, R. Gomperts, B. Mennucci, H. P. Hratchian, 
 J. V. Ortiz, A. F. Izmaylov, J. L. Sonnenberg, D. Williams-Young, 
 F. Ding, F. Lipparini, F. Egidi, J. Goings, B. Peng, A. Petrone, 
 T. Henderson, D. Ranasinghe, V. G. Zakrzewski, J. Gao, N. Rega, 
 G. Zheng, W. Liang, M. Hada, M. Ehara, K. Toyota, R. Fukuda, 
 J. Hasegawa, M. Ishida, T. Nakajima, Y. Honda, O. Kitao, H. Nakai, 
 T. Vreven, K. Throssell, J. A. Montgomery, Jr., J. E. Peralta, 
 F. Ogliaro, M. J. Bearpark, J. J. Heyd, E. N. Brothers, K. N. Kudin, 
 V. N. Staroverov, T. A. Keith, R. Kobayashi, J. Normand, 
 K. Raghavachari, A. P. Rendell, J. C. Burant, S. S. Iyengar, 
 J. Tomasi, M. Cossi, J. M. Millam, M. Klene, C. Adamo, R. Cammi, 
 J. W. Ochterski, R. L. Martin, K. Morokuma, O. Farkas, 
 J. B. Foresman, and D. J. Fox, Gaussian, Inc., Wallingford CT, 2019.
 
 ******************************************
 Gaussian 16:  ES64L-G16RevC.01  3-Jul-2019
                24-Mar-2022 
 ******************************************
 %mem=8000Mb
 %NProc=8
 Will use up to    8 processors via shared memory.
 %chk=gs-uo2_cl2.linear.mp2.sp.chk
 ----------------------------------------------------------------------
 #p MP2(MaxDisk=500Gb, Window=(22,0))/GEN GFInput GFPrint 5D 7F IOP(6/7
 =3, 4/69=2, 6/10=1) Pseudo=Read Symm=(Loose) Int=(UltraFine) Guess=(Ch
 eckPoint) Scf=(NoVarAcc,MaxCycle=100,conver=8) Geom=(CheckPoint,ModRed
 undant) Symmetry=Loose
 ----------------------------------------------------------------------
 1/18=120,29=2,38=1,172=1/1;
 2/12=2,17=2,18=2,40=1/2;
 3/5=7,8=11,11=9,14=-4,16=1,17=8,24=110,25=1,30=1,75=-5,116=-2/1,2,3;
 4/5=1,69=2/1;
 5/5=2,6=8,7=100,38=6/2;
 8/10=91,37=22/1;
 9/16=-3/6;
 6/7=3,8=2,9=2,10=1/1;
 99/5=1,9=1/99;
 Leave Link    1 at Thu Mar 24 17:13:50 2022, MaxMem=  1048576000 cpu:               1.1 elap:               0.2
 (Enter /home/pcmt/gaussian/g16.C.01/g16/l101.exe)
 --------------------------
 UO2Cl2 - linear - MP2 - GP
 --------------------------
 Structure from the checkpoint file:  "gs-uo2_cl2.linear.mp2.sp.chk"
 Charge =  0 Multiplicity = 1
 Redundant internal coordinates found in file.  (old form).
 U,0,0.,0.0866906808,0.
 O,0,-1.728950101,0.0866917548,0.
 O,0,1.728950101,0.0866917548,0.
 Cl,0,0.,-1.2360774784,-2.1377754735
 Cl,0,0.,-1.2360774784,2.1377754735
 Recover connectivity data from disk.
 The following ModRedundant input section has been read:
 L       2       1       3       4 F                                           
 
 ITRead=  0  0  0  0  0
 MicOpt= -1 -1 -1 -1 -1
                           ----------------------------
                           !    Current Parameters    !
                           ! (Angstroms and Degrees)  !
 --------------------------                            --------------------------
 ! Name  Definition              Value                                          !
 --------------------------------------------------------------------------------
 ! R1    R(1,2)                  1.729                                          !
 ! R2    R(1,3)                  1.729                                          !
 ! R3    R(1,4)                  2.5139                                         !
 ! R4    R(1,5)                  2.5139                                         !
 ! A1    A(2,1,4)               90.0                                            !
 ! A2    A(2,1,5)               90.0                                            !
 ! A3    A(3,1,4)               90.0                                            !
 ! A4    A(3,1,5)               90.0                                            !
 ! A5    A(4,1,5)              116.5049                                         !
 ! A6    L(2,1,3,4,-1)         180.0            Frozen                          !
 ! A7    L(2,1,3,4,-2)         179.9999         Frozen                          !
 ! D1    D(2,1,5,4)             90.0                                            !
 ! D2    D(3,1,5,4)            -90.0                                            !
 --------------------------------------------------------------------------------
 NAtoms=      5 NQM=        5 NQMF=       0 NMMI=      0 NMMIF=      0
                NMic=       0 NMicF=      0.
                    Isotopes and Nuclear Properties:
 (Nuclear quadrupole moments (NQMom) in fm**2, nuclear magnetic moments (NMagM)
  in nuclear magnetons)

  Atom         1           2           3           4           5
 IAtWgt=         238          16          16          35          35
 AtmWgt= 238.0508000  15.9949146  15.9949146  34.9688527  34.9688527
 NucSpn=           0           0           0           3           3
 AtZEff=   0.0000000   5.6000000   5.6000000  14.2400000  14.2400000
 NQMom=    0.0000000   0.0000000   0.0000000  -8.1650000  -8.1650000
 NMagM=    0.0000000   0.0000000   0.0000000   0.8218740   0.8218740
 AtZNuc=  92.0000000   8.0000000   8.0000000  17.0000000  17.0000000
 Leave Link  101 at Thu Mar 24 17:13:51 2022, MaxMem=  1048576000 cpu:               1.7 elap:               0.8
 (Enter /home/pcmt/gaussian/g16.C.01/g16/l202.exe)
                          Input orientation:                          
 ---------------------------------------------------------------------
 Center     Atomic      Atomic             Coordinates (Angstroms)
 Number     Number       Type             X           Y           Z
 ---------------------------------------------------------------------
      1         92           0        0.000000    0.086691    0.000000
      2          8           0       -1.728950    0.086692    0.000000
      3          8           0        1.728950    0.086692   -0.000000
      4         17           0       -0.000000   -1.236077   -2.137775
      5         17           0        0.000000   -1.236077    2.137775
 ---------------------------------------------------------------------
                    Distance matrix (angstroms):
                    1          2          3          4          5
     1  U    0.000000
     2  O    1.728950   0.000000
     3  O    1.728950   3.457900   0.000000
     4  Cl   2.513921   3.051077   3.051077   0.000000
     5  Cl   2.513921   3.051077   3.051077   4.275551   0.000000
 This structure is nearly, but not quite of a higher symmetry.
 Consider Symm=Loose if the higher symmetry is desired.
 Stoichiometry    Cl2O2U
 Framework group  C2V[C2(U),SGV(O2),SGV'(Cl2)]
 Deg. of freedom     4
 Full point group                 C2V     NOp   4
 RotChk:  IX=0 Diff= 1.03D-13
 Largest Abelian subgroup         C2V     NOp   4
 Largest concise Abelian subgroup C2V     NOp   4
                         Standard orientation:                         
 ---------------------------------------------------------------------
 Center     Atomic      Atomic             Coordinates (Angstroms)
 Number     Number       Type             X           Y           Z
 ---------------------------------------------------------------------
      1         92           0       -0.000000    0.000000    0.316719
      2          8           0       -0.000000    1.728950    0.316720
      3          8           0       -0.000000   -1.728950    0.316720
      4         17           0        2.137775   -0.000000   -1.006049
      5         17           0       -2.137775    0.000000   -1.006049
 ---------------------------------------------------------------------
 Rotational constants (GHZ):           2.6209332           1.2170553           1.2124661
 Leave Link  202 at Thu Mar 24 17:13:52 2022, MaxMem=  1048576000 cpu:               0.5 elap:               0.3
 (Enter /home/pcmt/gaussian/g16.C.01/g16/l301.exe)
 General basis read from cards:  (5D, 7F)
 Centers:       1
 S 3 1.00
     Exponent=  1.2098082000D+04 Coefficients=  1.0200000000D-04
     Exponent=  1.8337573000D+03 Coefficients=  7.7100000000D-04
     Exponent=  3.5168632000D+02 Coefficients=  2.9690000000D-03
 S 1 1.00
     Exponent=  1.0431426000D+02 Coefficients=  1.0000000000D+00
 S 3 1.00
     Exponent=  6.0905822000D+01 Coefficients=  4.9868000000D-02
     Exponent=  3.5515086000D+01 Coefficients= -2.4531300000D-01
     Exponent=  2.0891227000D+01 Coefficients=  7.2384700000D-01
 S 1 1.00
     Exponent=  1.0184647000D+01 Coefficients=  1.0000000000D+00
 S 1 1.00
     Exponent=  2.8518510000D+00 Coefficients=  1.0000000000D+00
 S 1 1.00
     Exponent=  1.5316160000D+00 Coefficients=  1.0000000000D+00
 S 1 1.00
     Exponent=  6.1620300000D-01 Coefficients=  1.0000000000D+00
 S 1 1.00
     Exponent=  2.7949400000D-01 Coefficients=  1.0000000000D+00
 S 1 1.00
     Exponent=  5.7253000000D-02 Coefficients=  1.0000000000D+00
 S 1 1.00
     Exponent=  2.3443000000D-02 Coefficients=  1.0000000000D+00
 P 5 1.00
     Exponent=  2.9068451000D+03 Coefficients=  8.8000000000D-05
     Exponent=  6.9440053000D+02 Coefficients=  7.3200000000D-04
     Exponent=  2.2463479000D+02 Coefficients=  3.4140000000D-03
     Exponent=  8.0520526000D+01 Coefficients=  1.1099000000D-02
     Exponent=  2.4080211000D+01 Coefficients=  2.5216000000D-02
 P 1 1.00
     Exponent=  1.4077580000D+01 Coefficients=  1.0000000000D+00
 P 1 1.00
     Exponent=  8.2658460000D+00 Coefficients=  1.0000000000D+00
 P 1 1.00
     Exponent=  3.4236070000D+00 Coefficients=  1.0000000000D+00
 P 1 1.00
     Exponent=  1.7084170000D+00 Coefficients=  1.0000000000D+00
 P 1 1.00
     Exponent=  6.5504600000D-01 Coefficients=  1.0000000000D+00
 P 1 1.00
     Exponent=  2.8375500000D-01 Coefficients=  1.0000000000D+00
 P 1 1.00
     Exponent=  1.0181400000D-01 Coefficients=  1.0000000000D+00
 P 1 1.00
     Exponent=  3.0535000000D-02 Coefficients=  1.0000000000D+00
 D 6 1.00
     Exponent=  4.4901953000D+02 Coefficients=  5.0000000000D-05
     Exponent=  1.5635695000D+02 Coefficients=  3.2200000000D-04
     Exponent=  6.0242439000D+01 Coefficients=  1.7770000000D-03
     Exponent=  1.7772317000D+01 Coefficients=  2.5385000000D-02
     Exponent=  1.0454304000D+01 Coefficients= -8.9378000000D-02
     Exponent=  3.5834330000D+00 Coefficients=  4.4479900000D-01
 D 1 1.00
     Exponent=  1.7637240000D+00 Coefficients=  1.0000000000D+00
 D 1 1.00
     Exponent=  7.8403000000D-01 Coefficients=  1.0000000000D+00
 D 1 1.00
     Exponent=  2.7612700000D-01 Coefficients=  1.0000000000D+00
 D 1 1.00
     Exponent=  8.6980000000D-02 Coefficients=  1.0000000000D+00
 F 5 1.00
     Exponent=  1.0528793000D+02 Coefficients=  2.2800000000D-04
     Exponent=  3.5101181000D+01 Coefficients=  2.3080000000D-03
     Exponent=  1.4564138000D+01 Coefficients=  9.2530000000D-03
     Exponent=  4.6518850000D+00 Coefficients=  1.3694900000D-01
     Exponent=  2.2559730000D+00 Coefficients=  3.3980100000D-01
 F 1 1.00
     Exponent=  1.0102740000D+00 Coefficients=  1.0000000000D+00
 F 1 1.00
     Exponent=  4.1168000000D-01 Coefficients=  1.0000000000D+00
 F 1 1.00
     Exponent=  1.4412000000D-01 Coefficients=  1.0000000000D+00
 G 4 1.00
     Exponent=  1.0528793000D+02 Coefficients=  1.3700000000D-04
     Exponent=  3.5101181000D+01 Coefficients=  1.8310000000D-03
     Exponent=  1.4564138000D+01 Coefficients=  1.9940000000D-02
     Exponent=  4.6518850000D+00 Coefficients=  1.1075800000D-01
 G 1 1.00
     Exponent=  2.2559730000D+00 Coefficients=  1.0000000000D+00
 G 1 1.00
     Exponent=  1.0102740000D+00 Coefficients=  1.0000000000D+00
 ****
 Centers:       4      5
 Def2TZVP
 ****
 Centers:       2      3
 Def2TZVP
 ****
 ======================================================================================================
                                       Pseudopotential Parameters
 ======================================================================================================
  Center     Atomic      Valence      Angular      Power
  Number     Number     Electrons     Momentum     of R      Exponent        Coefficient   SO-Coeffient
 ======================================================================================================
    1         92           32
                                      H and up 
                                                     2        1.0000000        0.00000000    0.00000000
                                      S - H
                                                     2       16.4140387      536.51662778    0.00000000
                                      P - H
                                                     2        9.0605561      169.54492465    0.00000000
                                      D - H
                                                     2        8.8318320      142.61559837    0.00000000
                                      F - H
                                                     2        7.0185163       60.39307602    0.00000000
                                      G - H
                                                     2       12.8040884      -60.12998958    0.00000000
    2          8
                                   No pseudopotential on this center.
    3          8
                                   No pseudopotential on this center.
    4         17
                                   No pseudopotential on this center.
    5         17
                                   No pseudopotential on this center.
 ======================================================================================================
 Ernie: Thresh=  0.10000D-02 Tol=  0.10000D-05 Strict=F.
 AO basis set in the form of general basis input (Overlap normalization):
      1 0
 S   3 1.00       0.000000000000
      0.1209808200D+05  0.2884168448D-01
      0.1833757300D+04  0.2180092033D+00
      0.3516863200D+03  0.8395192276D+00
 S   3 1.00       0.000000000000
      0.6090582200D+02  0.9338504807D-01
      0.3551508600D+02 -0.4593840999D+00
      0.2089122700D+02  0.1355508280D+01
 S   1 1.00       0.000000000000
      0.1043142600D+03  0.1000000000D+01
 S   1 1.00       0.000000000000
      0.1018464700D+02  0.1000000000D+01
 S   1 1.00       0.000000000000
      0.2851851000D+01  0.1000000000D+01
 S   1 1.00       0.000000000000
      0.1531616000D+01  0.1000000000D+01
 S   1 1.00       0.000000000000
      0.6162030000D+00  0.1000000000D+01
 S   1 1.00       0.000000000000
      0.2794940000D+00  0.1000000000D+01
 S   1 1.00       0.000000000000
      0.5725300000D-01  0.1000000000D+01
 S   1 1.00       0.000000000000
      0.2344300000D-01  0.1000000000D+01
 P   5 1.00       0.000000000000
      0.2906845100D+04  0.2490724940D-02
      0.6944005300D+03  0.2071830291D-01
      0.2246347900D+03  0.9662880620D-01
      0.8052052600D+02  0.3141426831D+00
      0.2408021100D+02  0.7137059101D+00
 P   1 1.00       0.000000000000
      0.1407758000D+02  0.1000000000D+01
 P   1 1.00       0.000000000000
      0.8265846000D+01  0.1000000000D+01
 P   1 1.00       0.000000000000
      0.3423607000D+01  0.1000000000D+01
 P   1 1.00       0.000000000000
      0.1708417000D+01  0.1000000000D+01
 P   1 1.00       0.000000000000
      0.6550460000D+00  0.1000000000D+01
 P   1 1.00       0.000000000000
      0.2837550000D+00  0.1000000000D+01
 P   1 1.00       0.000000000000
      0.1018140000D+00  0.1000000000D+01
 P   1 1.00       0.000000000000
      0.3053500000D-01  0.1000000000D+01
 D   6 1.00       0.000000000000
      0.4490195300D+03  0.1244413406D-03
      0.1563569500D+03  0.8014022332D-03
      0.6024243900D+02  0.4422645243D-02
      0.1777231700D+02  0.6317886860D-01
      0.1045430400D+02 -0.2224463627D+00
      0.3583433000D+01  0.1107027677D+01
 D   1 1.00       0.000000000000
      0.1763724000D+01  0.1000000000D+01
 D   1 1.00       0.000000000000
      0.7840300000D+00  0.1000000000D+01
 D   1 1.00       0.000000000000
      0.2761270000D+00  0.1000000000D+01
 D   1 1.00       0.000000000000
      0.8698000000D-01  0.1000000000D+01
 F   5 1.00       0.000000000000
      0.1052879300D+03  0.5015876177D-03
      0.3510118100D+02  0.5077474656D-02
      0.1456413800D+02  0.2035609748D-01
      0.4651885000D+01  0.3012803625D+00
      0.2255973000D+01  0.7475437460D+00
 F   1 1.00       0.000000000000
      0.1010274000D+01  0.1000000000D+01
 F   1 1.00       0.000000000000
      0.4116800000D+00  0.1000000000D+01
 F   1 1.00       0.000000000000
      0.1441200000D+00  0.1000000000D+01
 G   4 1.00       0.000000000000
      0.1052879300D+03  0.1132460043D-02
      0.3510118100D+02  0.1513528715D-01
      0.1456413800D+02  0.1648266662D+00
      0.4651885000D+01  0.9155402153D+00
 G   1 1.00       0.000000000000
      0.2255973000D+01  0.1000000000D+01
 G   1 1.00       0.000000000000
      0.1010274000D+01  0.1000000000D+01
 ****
      2 0
 S   6 1.00       0.000000000000
      0.2703238263D+05  0.5722733521D-03
      0.4052387139D+04  0.4435323349D-02
      0.9223272271D+03  0.2302010771D-01
      0.2612407099D+03  0.9282249067D-01
      0.8535464135D+02  0.2937850001D+00
      0.3103503524D+02  0.6740160450D+00
 S   2 1.00       0.000000000000
      0.1226086073D+02  0.6383993703D+00
      0.4998707601D+01  0.3953458713D+00
 S   1 1.00       0.000000000000
      0.1170310816D+01  0.1000000000D+01
 S   1 1.00       0.000000000000
      0.4647474099D+00  0.1000000000D+01
 S   1 1.00       0.000000000000
      0.1850453636D+00  0.1000000000D+01
 P   4 1.00       0.000000000000
      0.6327495480D+02  0.1201833222D-01
      0.1462704938D+02  0.8300542179D-01
      0.4450122346D+01  0.3199174393D+00
      0.1527579965D+01  0.7071554292D+00
 P   1 1.00       0.000000000000
      0.5293511794D+00  0.1000000000D+01
 P   1 1.00       0.000000000000
      0.1747842127D+00  0.1000000000D+01
 D   1 1.00       0.000000000000
      0.2314000000D+01  0.1000000000D+01
 D   1 1.00       0.000000000000
      0.6450000000D+00  0.1000000000D+01
 F   1 1.00       0.000000000000
      0.1428000000D+01  0.1000000000D+01
 ****
      3 0
 S   6 1.00       0.000000000000
      0.2703238263D+05  0.5722733521D-03
      0.4052387139D+04  0.4435323349D-02
      0.9223272271D+03  0.2302010771D-01
      0.2612407099D+03  0.9282249067D-01
      0.8535464135D+02  0.2937850001D+00
      0.3103503524D+02  0.6740160450D+00
 S   2 1.00       0.000000000000
      0.1226086073D+02  0.6383993703D+00
      0.4998707601D+01  0.3953458713D+00
 S   1 1.00       0.000000000000
      0.1170310816D+01  0.1000000000D+01
 S   1 1.00       0.000000000000
      0.4647474099D+00  0.1000000000D+01
 S   1 1.00       0.000000000000
      0.1850453636D+00  0.1000000000D+01
 P   4 1.00       0.000000000000
      0.6327495480D+02  0.1201833222D-01
      0.1462704938D+02  0.8300542179D-01
      0.4450122346D+01  0.3199174393D+00
      0.1527579965D+01  0.7071554292D+00
 P   1 1.00       0.000000000000
      0.5293511794D+00  0.1000000000D+01
 P   1 1.00       0.000000000000
      0.1747842127D+00  0.1000000000D+01
 D   1 1.00       0.000000000000
      0.2314000000D+01  0.1000000000D+01
 D   1 1.00       0.000000000000
      0.6450000000D+00  0.1000000000D+01
 F   1 1.00       0.000000000000
      0.1428000000D+01  0.1000000000D+01
 ****
      4 0
 S   7 1.00       0.000000000000
      0.6950799094D+05  0.5145738965D-03
      0.1042615688D+05  0.3978134481D-02
      0.2373233406D+04  0.2045617867D-01
      0.6715642007D+03  0.8014810289D-01
      0.2184199979D+03  0.2345477032D+00
      0.7757224971D+02  0.4454336858D+00
      0.2888881528D+02  0.3546684250D+00
 S   3 1.00       0.000000000000
      0.1271052718D+03  0.1129368805D+00
      0.3933958296D+02  0.4837351421D+00
      0.7674067999D+01 -0.1229229739D+01
 S   2 1.00       0.000000000000
      0.3874562763D+01  0.6729682164D+00
      0.1838583257D+01  0.3495605141D+00
 S   1 1.00       0.000000000000
      0.5022905754D+00  0.1000000000D+01
 S   1 1.00       0.000000000000
      0.1796272342D+00  0.1000000000D+01
 P   5 1.00       0.000000000000
      0.6665042328D+03  0.3350250820D-02
      0.1576424169D+03  0.2676397041D-01
      0.5026252098D+02  0.1236268236D+00
      0.1853607811D+02  0.3584578792D+00
      0.7294053278D+01  0.6167729635D+00
 P   1 1.00       0.000000000000
      0.2943324899D+01  0.1000000000D+01
 P   1 1.00       0.000000000000
      0.1040497082D+01  0.1000000000D+01
 P   1 1.00       0.000000000000
      0.3845641508D+00  0.1000000000D+01
 P   1 1.00       0.000000000000
      0.1306964273D+00  0.1000000000D+01
 D   2 1.00       0.000000000000
      0.4610000000D+01  0.1826583505D+00
      0.1011000000D+01  0.9132917523D+00
 D   1 1.00       0.000000000000
      0.3390000000D+00  0.1000000000D+01
 F   1 1.00       0.000000000000
      0.7060000000D+00  0.1000000000D+01
 ****
      5 0
 S   7 1.00       0.000000000000
      0.6950799094D+05  0.5145738965D-03
      0.1042615688D+05  0.3978134481D-02
      0.2373233406D+04  0.2045617867D-01
      0.6715642007D+03  0.8014810289D-01
      0.2184199979D+03  0.2345477032D+00
      0.7757224971D+02  0.4454336858D+00
      0.2888881528D+02  0.3546684250D+00
 S   3 1.00       0.000000000000
      0.1271052718D+03  0.1129368805D+00
      0.3933958296D+02  0.4837351421D+00
      0.7674067999D+01 -0.1229229739D+01
 S   2 1.00       0.000000000000
      0.3874562763D+01  0.6729682164D+00
      0.1838583257D+01  0.3495605141D+00
 S   1 1.00       0.000000000000
      0.5022905754D+00  0.1000000000D+01
 S   1 1.00       0.000000000000
      0.1796272342D+00  0.1000000000D+01
 P   5 1.00       0.000000000000
      0.6665042328D+03  0.3350250820D-02
      0.1576424169D+03  0.2676397041D-01
      0.5026252098D+02  0.1236268236D+00
      0.1853607811D+02  0.3584578792D+00
      0.7294053278D+01  0.6167729635D+00
 P   1 1.00       0.000000000000
      0.2943324899D+01  0.1000000000D+01
 P   1 1.00       0.000000000000
      0.1040497082D+01  0.1000000000D+01
 P   1 1.00       0.000000000000
      0.3845641508D+00  0.1000000000D+01
 P   1 1.00       0.000000000000
      0.1306964273D+00  0.1000000000D+01
 D   2 1.00       0.000000000000
      0.4610000000D+01  0.1826583505D+00
      0.1011000000D+01  0.9132917523D+00
 D   1 1.00       0.000000000000
      0.3390000000D+00  0.1000000000D+01
 F   1 1.00       0.000000000000
      0.7060000000D+00  0.1000000000D+01
 ****

 AO basis set (Overlap normalization):
 Atom U1       Shell     1 S   3     bf    1 -     1         -0.000000000000         -0.000000000000          0.598512198080
      0.1209808200D+05  0.2884168448D-01
      0.1833757300D+04  0.2180092033D+00
      0.3516863200D+03  0.8395192276D+00
 Atom U1       Shell     2 S   3     bf    2 -     2         -0.000000000000         -0.000000000000          0.598512198080
      0.6090582200D+02  0.9338504807D-01
      0.3551508600D+02 -0.4593840999D+00
      0.2089122700D+02  0.1355508280D+01
 Atom U1       Shell     3 S   1     bf    3 -     3         -0.000000000000         -0.000000000000          0.598512198080
      0.1043142600D+03  0.1000000000D+01
 Atom U1       Shell     4 S   1     bf    4 -     4         -0.000000000000         -0.000000000000          0.598512198080
      0.1018464700D+02  0.1000000000D+01
 Atom U1       Shell     5 S   1     bf    5 -     5         -0.000000000000         -0.000000000000          0.598512198080
      0.2851851000D+01  0.1000000000D+01
 Atom U1       Shell     6 S   1     bf    6 -     6         -0.000000000000         -0.000000000000          0.598512198080
      0.1531616000D+01  0.1000000000D+01
 Atom U1       Shell     7 S   1     bf    7 -     7         -0.000000000000         -0.000000000000          0.598512198080
      0.6162030000D+00  0.1000000000D+01
 Atom U1       Shell     8 S   1     bf    8 -     8         -0.000000000000         -0.000000000000          0.598512198080
      0.2794940000D+00  0.1000000000D+01
 Atom U1       Shell     9 S   1     bf    9 -     9         -0.000000000000         -0.000000000000          0.598512198080
      0.5725300000D-01  0.1000000000D+01
 Atom U1       Shell    10 S   1     bf   10 -    10         -0.000000000000         -0.000000000000          0.598512198080
      0.2344300000D-01  0.1000000000D+01
 Atom U1       Shell    11 P   5     bf   11 -    13         -0.000000000000         -0.000000000000          0.598512198080
      0.2906845100D+04  0.2490724940D-02
      0.6944005300D+03  0.2071830291D-01
      0.2246347900D+03  0.9662880620D-01
      0.8052052600D+02  0.3141426831D+00
      0.2408021100D+02  0.7137059101D+00
 Atom U1       Shell    12 P   1     bf   14 -    16         -0.000000000000         -0.000000000000          0.598512198080
      0.1407758000D+02  0.1000000000D+01
 Atom U1       Shell    13 P   1     bf   17 -    19         -0.000000000000         -0.000000000000          0.598512198080
      0.8265846000D+01  0.1000000000D+01
 Atom U1       Shell    14 P   1     bf   20 -    22         -0.000000000000         -0.000000000000          0.598512198080
      0.3423607000D+01  0.1000000000D+01
 Atom U1       Shell    15 P   1     bf   23 -    25         -0.000000000000         -0.000000000000          0.598512198080
      0.1708417000D+01  0.1000000000D+01
 Atom U1       Shell    16 P   1     bf   26 -    28         -0.000000000000         -0.000000000000          0.598512198080
      0.6550460000D+00  0.1000000000D+01
 Atom U1       Shell    17 P   1     bf   29 -    31         -0.000000000000         -0.000000000000          0.598512198080
      0.2837550000D+00  0.1000000000D+01
 Atom U1       Shell    18 P   1     bf   32 -    34         -0.000000000000         -0.000000000000          0.598512198080
      0.1018140000D+00  0.1000000000D+01
 Atom U1       Shell    19 P   1     bf   35 -    37         -0.000000000000         -0.000000000000          0.598512198080
      0.3053500000D-01  0.1000000000D+01
 Atom U1       Shell    20 D   6     bf   38 -    42         -0.000000000000         -0.000000000000          0.598512198080
      0.4490195300D+03  0.1244413406D-03
      0.1563569500D+03  0.8014022332D-03
      0.6024243900D+02  0.4422645243D-02
      0.1777231700D+02  0.6317886860D-01
      0.1045430400D+02 -0.2224463627D+00
      0.3583433000D+01  0.1107027677D+01
 Atom U1       Shell    21 D   1     bf   43 -    47         -0.000000000000         -0.000000000000          0.598512198080
      0.1763724000D+01  0.1000000000D+01
 Atom U1       Shell    22 D   1     bf   48 -    52         -0.000000000000         -0.000000000000          0.598512198080
      0.7840300000D+00  0.1000000000D+01
 Atom U1       Shell    23 D   1     bf   53 -    57         -0.000000000000         -0.000000000000          0.598512198080
      0.2761270000D+00  0.1000000000D+01
 Atom U1       Shell    24 D   1     bf   58 -    62         -0.000000000000         -0.000000000000          0.598512198080
      0.8698000000D-01  0.1000000000D+01
 Atom U1       Shell    25 F   5     bf   63 -    69         -0.000000000000         -0.000000000000          0.598512198080
      0.1052879300D+03  0.5015876177D-03
      0.3510118100D+02  0.5077474656D-02
      0.1456413800D+02  0.2035609748D-01
      0.4651885000D+01  0.3012803625D+00
      0.2255973000D+01  0.7475437460D+00
 Atom U1       Shell    26 F   1     bf   70 -    76         -0.000000000000         -0.000000000000          0.598512198080
      0.1010274000D+01  0.1000000000D+01
 Atom U1       Shell    27 F   1     bf   77 -    83         -0.000000000000         -0.000000000000          0.598512198080
      0.4116800000D+00  0.1000000000D+01
 Atom U1       Shell    28 F   1     bf   84 -    90         -0.000000000000         -0.000000000000          0.598512198080
      0.1441200000D+00  0.1000000000D+01
 Atom U1       Shell    29 G   4     bf   91 -    99         -0.000000000000         -0.000000000000          0.598512198080
      0.1052879300D+03  0.1132460043D-02
      0.3510118100D+02  0.1513528715D-01
      0.1456413800D+02  0.1648266662D+00
      0.4651885000D+01  0.9155402153D+00
 Atom U1       Shell    30 G   1     bf  100 -   108         -0.000000000000         -0.000000000000          0.598512198080
      0.2255973000D+01  0.1000000000D+01
 Atom U1       Shell    31 G   1     bf  109 -   117         -0.000000000000         -0.000000000000          0.598512198080
      0.1010274000D+01  0.1000000000D+01
 Atom O2       Shell    32 S   6     bf  118 -   118          0.000000000000          3.267242173864          0.598514227776
      0.2703238263D+05  0.5722733521D-03
      0.4052387139D+04  0.4435323349D-02
      0.9223272271D+03  0.2302010771D-01
      0.2612407099D+03  0.9282249067D-01
      0.8535464135D+02  0.2937850001D+00
      0.3103503524D+02  0.6740160450D+00
 Atom O2       Shell    33 S   2     bf  119 -   119          0.000000000000          3.267242173864          0.598514227776
      0.1226086073D+02  0.6383993703D+00
      0.4998707601D+01  0.3953458713D+00
 Atom O2       Shell    34 S   1     bf  120 -   120          0.000000000000          3.267242173864          0.598514227776
      0.1170310816D+01  0.1000000000D+01
 Atom O2       Shell    35 S   1     bf  121 -   121          0.000000000000          3.267242173864          0.598514227776
      0.4647474099D+00  0.1000000000D+01
 Atom O2       Shell    36 S   1     bf  122 -   122          0.000000000000          3.267242173864          0.598514227776
      0.1850453636D+00  0.1000000000D+01
 Atom O2       Shell    37 P   4     bf  123 -   125          0.000000000000          3.267242173864          0.598514227776
      0.6327495480D+02  0.1201833222D-01
      0.1462704938D+02  0.8300542179D-01
      0.4450122346D+01  0.3199174393D+00
      0.1527579965D+01  0.7071554292D+00
 Atom O2       Shell    38 P   1     bf  126 -   128          0.000000000000          3.267242173864          0.598514227776
      0.5293511794D+00  0.1000000000D+01
 Atom O2       Shell    39 P   1     bf  129 -   131          0.000000000000          3.267242173864          0.598514227776
      0.1747842127D+00  0.1000000000D+01
 Atom O2       Shell    40 D   1     bf  132 -   136          0.000000000000          3.267242173864          0.598514227776
      0.2314000000D+01  0.1000000000D+01
 Atom O2       Shell    41 D   1     bf  137 -   141          0.000000000000          3.267242173864          0.598514227776
      0.6450000000D+00  0.1000000000D+01
 Atom O2       Shell    42 F   1     bf  142 -   148          0.000000000000          3.267242173864          0.598514227776
      0.1428000000D+01  0.1000000000D+01
 Atom O3       Shell    43 S   6     bf  149 -   149         -0.000000000000         -3.267242173864          0.598514227776
      0.2703238263D+05  0.5722733521D-03
      0.4052387139D+04  0.4435323349D-02
      0.9223272271D+03  0.2302010771D-01
      0.2612407099D+03  0.9282249067D-01
      0.8535464135D+02  0.2937850001D+00
      0.3103503524D+02  0.6740160450D+00
 Atom O3       Shell    44 S   2     bf  150 -   150         -0.000000000000         -3.267242173864          0.598514227776
      0.1226086073D+02  0.6383993703D+00
      0.4998707601D+01  0.3953458713D+00
 Atom O3       Shell    45 S   1     bf  151 -   151         -0.000000000000         -3.267242173864          0.598514227776
      0.1170310816D+01  0.1000000000D+01
 Atom O3       Shell    46 S   1     bf  152 -   152         -0.000000000000         -3.267242173864          0.598514227776
      0.4647474099D+00  0.1000000000D+01
 Atom O3       Shell    47 S   1     bf  153 -   153         -0.000000000000         -3.267242173864          0.598514227776
      0.1850453636D+00  0.1000000000D+01
 Atom O3       Shell    48 P   4     bf  154 -   156         -0.000000000000         -3.267242173864          0.598514227776
      0.6327495480D+02  0.1201833222D-01
      0.1462704938D+02  0.8300542179D-01
      0.4450122346D+01  0.3199174393D+00
      0.1527579965D+01  0.7071554292D+00
 Atom O3       Shell    49 P   1     bf  157 -   159         -0.000000000000         -3.267242173864          0.598514227776
      0.5293511794D+00  0.1000000000D+01
 Atom O3       Shell    50 P   1     bf  160 -   162         -0.000000000000         -3.267242173864          0.598514227776
      0.1747842127D+00  0.1000000000D+01
 Atom O3       Shell    51 D   1     bf  163 -   167         -0.000000000000         -3.267242173864          0.598514227776
      0.2314000000D+01  0.1000000000D+01
 Atom O3       Shell    52 D   1     bf  168 -   172         -0.000000000000         -3.267242173864          0.598514227776
      0.6450000000D+00  0.1000000000D+01
 Atom O3       Shell    53 F   1     bf  173 -   179         -0.000000000000         -3.267242173864          0.598514227776
      0.1428000000D+01  0.1000000000D+01
 Atom Cl4      Shell    54 S   7     bf  180 -   180          4.039810160720         -0.000000000000         -1.901157349052
      0.6950799094D+05  0.5145738965D-03
      0.1042615688D+05  0.3978134481D-02
      0.2373233406D+04  0.2045617867D-01
      0.6715642007D+03  0.8014810289D-01
      0.2184199979D+03  0.2345477032D+00
      0.7757224971D+02  0.4454336858D+00
      0.2888881528D+02  0.3546684250D+00
 Atom Cl4      Shell    55 S   3     bf  181 -   181          4.039810160720         -0.000000000000         -1.901157349052
      0.1271052718D+03  0.1129368805D+00
      0.3933958296D+02  0.4837351421D+00
      0.7674067999D+01 -0.1229229739D+01
 Atom Cl4      Shell    56 S   2     bf  182 -   182          4.039810160720         -0.000000000000         -1.901157349052
      0.3874562763D+01  0.6729682164D+00
      0.1838583257D+01  0.3495605141D+00
 Atom Cl4      Shell    57 S   1     bf  183 -   183          4.039810160720         -0.000000000000         -1.901157349052
      0.5022905754D+00  0.1000000000D+01
 Atom Cl4      Shell    58 S   1     bf  184 -   184          4.039810160720         -0.000000000000         -1.901157349052
      0.1796272342D+00  0.1000000000D+01
 Atom Cl4      Shell    59 P   5     bf  185 -   187          4.039810160720         -0.000000000000         -1.901157349052
      0.6665042328D+03  0.3350250820D-02
      0.1576424169D+03  0.2676397041D-01
      0.5026252098D+02  0.1236268236D+00
      0.1853607811D+02  0.3584578792D+00
      0.7294053278D+01  0.6167729635D+00
 Atom Cl4      Shell    60 P   1     bf  188 -   190          4.039810160720         -0.000000000000         -1.901157349052
      0.2943324899D+01  0.1000000000D+01
 Atom Cl4      Shell    61 P   1     bf  191 -   193          4.039810160720         -0.000000000000         -1.901157349052
      0.1040497082D+01  0.1000000000D+01
 Atom Cl4      Shell    62 P   1     bf  194 -   196          4.039810160720         -0.000000000000         -1.901157349052
      0.3845641508D+00  0.1000000000D+01
 Atom Cl4      Shell    63 P   1     bf  197 -   199          4.039810160720         -0.000000000000         -1.901157349052
      0.1306964273D+00  0.1000000000D+01
 Atom Cl4      Shell    64 D   2     bf  200 -   204          4.039810160720         -0.000000000000         -1.901157349052
      0.4610000000D+01  0.1826583505D+00
      0.1011000000D+01  0.9132917523D+00
 Atom Cl4      Shell    65 D   1     bf  205 -   209          4.039810160720         -0.000000000000         -1.901157349052
      0.3390000000D+00  0.1000000000D+01
 Atom Cl4      Shell    66 F   1     bf  210 -   216          4.039810160720         -0.000000000000         -1.901157349052
      0.7060000000D+00  0.1000000000D+01
 Atom Cl5      Shell    67 S   7     bf  217 -   217         -4.039810160720          0.000000000000         -1.901157349052
      0.6950799094D+05  0.5145738965D-03
      0.1042615688D+05  0.3978134481D-02
      0.2373233406D+04  0.2045617867D-01
      0.6715642007D+03  0.8014810289D-01
      0.2184199979D+03  0.2345477032D+00
      0.7757224971D+02  0.4454336858D+00
      0.2888881528D+02  0.3546684250D+00
 Atom Cl5      Shell    68 S   3     bf  218 -   218         -4.039810160720          0.000000000000         -1.901157349052
      0.1271052718D+03  0.1129368805D+00
      0.3933958296D+02  0.4837351421D+00
      0.7674067999D+01 -0.1229229739D+01
 Atom Cl5      Shell    69 S   2     bf  219 -   219         -4.039810160720          0.000000000000         -1.901157349052
      0.3874562763D+01  0.6729682164D+00
      0.1838583257D+01  0.3495605141D+00
 Atom Cl5      Shell    70 S   1     bf  220 -   220         -4.039810160720          0.000000000000         -1.901157349052
      0.5022905754D+00  0.1000000000D+01
 Atom Cl5      Shell    71 S   1     bf  221 -   221         -4.039810160720          0.000000000000         -1.901157349052
      0.1796272342D+00  0.1000000000D+01
 Atom Cl5      Shell    72 P   5     bf  222 -   224         -4.039810160720          0.000000000000         -1.901157349052
      0.6665042328D+03  0.3350250820D-02
      0.1576424169D+03  0.2676397041D-01
      0.5026252098D+02  0.1236268236D+00
      0.1853607811D+02  0.3584578792D+00
      0.7294053278D+01  0.6167729635D+00
 Atom Cl5      Shell    73 P   1     bf  225 -   227         -4.039810160720          0.000000000000         -1.901157349052
      0.2943324899D+01  0.1000000000D+01
 Atom Cl5      Shell    74 P   1     bf  228 -   230         -4.039810160720          0.000000000000         -1.901157349052
      0.1040497082D+01  0.1000000000D+01
 Atom Cl5      Shell    75 P   1     bf  231 -   233         -4.039810160720          0.000000000000         -1.901157349052
      0.3845641508D+00  0.1000000000D+01
 Atom Cl5      Shell    76 P   1     bf  234 -   236         -4.039810160720          0.000000000000         -1.901157349052
      0.1306964273D+00  0.1000000000D+01
 Atom Cl5      Shell    77 D   2     bf  237 -   241         -4.039810160720          0.000000000000         -1.901157349052
      0.4610000000D+01  0.1826583505D+00
      0.1011000000D+01  0.9132917523D+00
 Atom Cl5      Shell    78 D   1     bf  242 -   246         -4.039810160720          0.000000000000         -1.901157349052
      0.3390000000D+00  0.1000000000D+01
 Atom Cl5      Shell    79 F   1     bf  247 -   253         -4.039810160720          0.000000000000         -1.901157349052
      0.7060000000D+00  0.1000000000D+01
 Effective core potential in the form of general ECP input:
      1 0
 U1-ECP   5 60
 H component
  1
  2        1.0000000        0.00000000    0.00000000
 S-H projection
  1
  2       16.4140387      536.51662778    0.00000000
 P-H projection
  1
  2        9.0605561      169.54492465    0.00000000
 D-H projection
  1
  2        8.8318320      142.61559837    0.00000000
 F-H projection
  1
  2        7.0185163       60.39307602    0.00000000
 G-H projection
  1
  2       12.8040884      -60.12998958    0.00000000
 
 There are   118 symmetry adapted cartesian basis functions of A1  symmetry.
 There are    42 symmetry adapted cartesian basis functions of A2  symmetry.
 There are    75 symmetry adapted cartesian basis functions of B1  symmetry.
 There are    73 symmetry adapted cartesian basis functions of B2  symmetry.
 There are    92 symmetry adapted basis functions of A1  symmetry.
 There are    37 symmetry adapted basis functions of A2  symmetry.
 There are    63 symmetry adapted basis functions of B1  symmetry.
 There are    61 symmetry adapted basis functions of B2  symmetry.
   253 basis functions,   523 primitive gaussians,   308 cartesian basis functions
    41 alpha electrons       41 beta electrons
       nuclear repulsion energy       525.6439821763 Hartrees.
 IExCor=    0 DFT=F Ex=HF Corr=None ExCW=0 ScaHFX=  1.000000
 ScaDFX=  1.000000  1.000000  1.000000  1.000000 ScalE2=  1.000000  1.000000
 IRadAn=      5 IRanWt=     -1 IRanGd=            0 ICorTp=0 IEmpDi=  4
 NAtoms=    5 NActive=    5 NUniq=    3 SFac= 2.78D+00 NAtFMM=   60 NAOKFM=F Big=F
 Integral buffers will be    131072 words long.
 Raffenetti 1 integral format.
 Two-electron integral symmetry is turned on.
 Leave Link  301 at Thu Mar 24 17:13:52 2022, MaxMem=  1048576000 cpu:               1.3 elap:               0.7
 (Enter /home/pcmt/gaussian/g16.C.01/g16/l302.exe)
 NPDir=0 NMtPBC=     1 NCelOv=     1 NCel=       1 NClECP=     1 NCelD=      1
         NCelK=      1 NCelE2=     1 NClLst=     1 CellRange=     0.0.
 One-electron integrals computed using PRISM.
 One-electron integral symmetry used in STVInt
   4 Symmetry operations used in ECPInt.
 ECPInt:  NShTT=    3160 NPrTT=   10748 LenC2=    3031 LenP2D=    7875.
 LDataN:  DoStor=T MaxTD1= 9 Len=  602
 NBasis=   253 RedAO= T EigKep=  6.58D-04  NBF=    92    37    63    61
 NBsUse=   253 1.00D-06 EigRej= -1.00D+00 NBFU=    92    37    63    61
 Leave Link  302 at Thu Mar 24 17:13:55 2022, MaxMem=  1048576000 cpu:              11.5 elap:               2.4
 (Enter /home/pcmt/gaussian/g16.C.01/g16/l303.exe)
 DipDrv:  MaxL=1.
 Leave Link  303 at Thu Mar 24 17:13:55 2022, MaxMem=  1048576000 cpu:               1.5 elap:               0.5
 (Enter /home/pcmt/gaussian/g16.C.01/g16/l401.exe)
 Initial guess from the checkpoint file:  "gs-uo2_cl2.linear.mp2.sp.chk"
 B after Tr=     0.000000   -0.000000    0.000000
         Rot=    1.000000   -0.000000    0.000000    0.000000 Ang=   0.00 deg.
 Guess basis will be translated and rotated to current coordinates.
 JPrj=2 DoOrth=T DoCkMO=T.
 Initial guess orbital symmetries:
       Occupied  (B1) (A1) (B2) (A1) (A1) (B1) (A1) (B1) (A1) (B2)
                 (A1) (B1) (A1) (B1) (B2) (A2) (A1) (B1) (A2) (B2)
                 (A1) (A1) (B2) (B1) (A1) (A1) (A1) (B1) (B2) (A2)
                 (B2) (A1) (B1) (A1) (B2) (A1) (B1) (A1) (B1) (A2)
                 (B2)
       Virtual   (A1) (B1) (B2) (A2) (A1) (B1) (A1) (B1) (A1) (A1)
                 (B2) (B1) (A1) (B2) (A2) (B2) (A1) (B2) (A1) (B1)
                 (A2) (B2) (A1) (B1) (A1) (B2) (B1) (A2) (A1) (B1)
                 (A2) (B2) (A1) (B1) (A1) (B2) (B1) (A2) (A1) (B2)
                 (B1) (A1) (A1) (B1) (A1) (B2) (A2) (B2) (A1) (B1)
                 (A1) (A2) (B1) (B2) (A1) (B2) (A1) (B1) (A1) (A1)
                 (B1) (B2) (B1) (A1) (A2) (A1) (B1) (A1) (B1) (B2)
                 (B2) (A2) (B2) (A2) (A1) (A2) (A2) (B2) (A1) (B1)
                 (A1) (B2) (B1) (B2) (A1) (A1) (B1) (B1) (A2) (B2)
                 (B2) (A1) (A2) (B1) (A2) (A1) (B1) (B2) (A1) (B2)
                 (B1) (A1) (B1) (B1) (A2) (A1) (A1) (B2) (B2) (B1)
                 (A1) (A2) (B1) (A1) (A2) (B1) (A1) (B2) (B2) (A2)
                 (A1) (A1) (B1) (B2) (A1) (A2) (B1) (A1) (B2) (A1)
                 (B2) (B2) (B2) (A2) (B1) (A1) (B1) (A1) (A1) (B1)
                 (A2) (B2) (B2) (A2) (B1) (A1) (B2) (A2) (A1) (A1)
                 (B1) (B2) (A1) (A1) (B1) (B1) (A2) (B2) (A1) (A2)
                 (B2) (B2) (A1) (B1) (A2) (A1) (B1) (B2) (A1) (B1)
                 (A1) (B2) (A2) (A1) (B2) (A1) (B2) (A2) (B1) (A1)
                 (B1) (A2) (A1) (B2) (B1) (A1) (A2) (B2) (A1) (B1)
                 (A1) (B1) (B2) (A2) (A1) (A1) (B1) (B2) (A1) (B1)
                 (A1) (A1) (B2) (A1) (B1) (B2) (A1) (A1) (B1) (B2)
                 (A1) (A1)
 The electronic state of the initial guess is 1-A1.
 Leave Link  401 at Thu Mar 24 17:13:57 2022, MaxMem=  1048576000 cpu:               5.9 elap:               1.3
 (Enter /home/pcmt/gaussian/g16.C.01/g16/l502.exe)
 Keep R1 ints in memory in symmetry-blocked form, NReq=646035938.
 FoFCou: FMM=F IPFlag=           0 FMFlag=           0 FMFlg1=           0
         NFxFlg=           0 DoJE=F BraDBF=F KetDBF=F FulRan=T
         wScrn=  0.000000 ICntrl=       600 IOpCl=  0 I1Cent=           0 NGrid=           0
         NMat0=    1 NMatS0=  32131 NMatT0=    0 NMatD0=    1 NMtDS0=    0 NMtDT0=    0
 Petite list used in FoFCou.
 Closed shell SCF:
 Using DIIS extrapolation, IDIIS=  1040.
 NGot=  1048576000 LenX=   918563448 LenY=   918468143
 Requested convergence on RMS density matrix=1.00D-08 within 100 cycles.
 Requested convergence on MAX density matrix=1.00D-06.
 Requested convergence on             energy=1.00D-06.
 No special actions if energy rises.

 Cycle   1  Pass 1  IDiag  1:
 E= -1544.16970108888    
 DIIS: error= 3.86D-02 at cycle   1 NSaved=   1.
 NSaved= 1 IEnMin= 1 EnMin= -1544.16970108888     IErMin= 1 ErrMin= 3.86D-02
 ErrMax= 3.86D-02  0.00D+00 EMaxC= 1.00D-01 BMatC= 1.68D-01 BMatP= 1.68D-01
 IDIUse=3 WtCom= 6.14D-01 WtEn= 3.86D-01
 Coeff-Com:  0.100D+01
 Coeff-En:   0.100D+01
 Coeff:      0.100D+01
 Gap=     0.587 Goal=   None    Shift=    0.000
 GapD=    0.587 DampG=2.000 DampE=0.250 DampFc=0.5000 IDamp=-1.
 Damping current iteration by 5.00D-01
 RMSDP=1.72D-03 MaxDP=1.99D-01              OVMax= 8.99D-02

 Cycle   2  Pass 1  IDiag  1:
 E= -1544.20115218447     Delta-E=       -0.031451095588 Rises=F Damp=T
 DIIS: error= 1.96D-02 at cycle   2 NSaved=   2.
 NSaved= 2 IEnMin= 2 EnMin= -1544.20115218447     IErMin= 2 ErrMin= 1.96D-02
 ErrMax= 1.96D-02  0.00D+00 EMaxC= 1.00D-01 BMatC= 5.20D-02 BMatP= 1.68D-01
 IDIUse=3 WtCom= 8.04D-01 WtEn= 1.96D-01
 Coeff-Com: -0.454D+00 0.145D+01
 Coeff-En:   0.000D+00 0.100D+01
 Coeff:     -0.365D+00 0.137D+01
 Gap=     0.419 Goal=   None    Shift=    0.000
 RMSDP=1.01D-03 MaxDP=6.62D-02 DE=-3.15D-02 OVMax= 6.15D-02

 Cycle   3  Pass 1  IDiag  1:
 E= -1544.23082753749     Delta-E=       -0.029675353018 Rises=F Damp=F
 DIIS: error= 1.22D-02 at cycle   3 NSaved=   3.
 NSaved= 3 IEnMin= 3 EnMin= -1544.23082753749     IErMin= 3 ErrMin= 1.22D-02
 ErrMax= 1.22D-02  0.00D+00 EMaxC= 1.00D-01 BMatC= 2.25D-02 BMatP= 5.20D-02
 IDIUse=3 WtCom= 8.78D-01 WtEn= 1.22D-01
 Coeff-Com: -0.416D+00 0.772D+00 0.643D+00
 Coeff-En:   0.000D+00 0.000D+00 0.100D+01
 Coeff:     -0.365D+00 0.678D+00 0.687D+00
 Gap=     0.420 Goal=   None    Shift=    0.000
 RMSDP=4.21D-04 MaxDP=3.77D-02 DE=-2.97D-02 OVMax= 3.69D-02

 Cycle   4  Pass 1  IDiag  1:
 E= -1544.24418006800     Delta-E=       -0.013352530508 Rises=F Damp=F
 DIIS: error= 3.88D-03 at cycle   4 NSaved=   4.
 NSaved= 4 IEnMin= 4 EnMin= -1544.24418006800     IErMin= 4 ErrMin= 3.88D-03
 ErrMax= 3.88D-03  0.00D+00 EMaxC= 1.00D-01 BMatC= 2.05D-03 BMatP= 2.25D-02
 IDIUse=3 WtCom= 9.61D-01 WtEn= 3.88D-02
 Coeff-Com: -0.141D-01-0.138D-02 0.227D+00 0.789D+00
 Coeff-En:   0.000D+00 0.000D+00 0.000D+00 0.100D+01
 Coeff:     -0.135D-01-0.133D-02 0.218D+00 0.797D+00
 Gap=     0.419 Goal=   None    Shift=    0.000
 RMSDP=1.36D-04 MaxDP=1.12D-02 DE=-1.34D-02 OVMax= 1.23D-02

 Cycle   5  Pass 1  IDiag  1:
 E= -1544.24560405405     Delta-E=       -0.001423986051 Rises=F Damp=F
 DIIS: error= 7.69D-04 at cycle   5 NSaved=   5.
 NSaved= 5 IEnMin= 5 EnMin= -1544.24560405405     IErMin= 5 ErrMin= 7.69D-04
 ErrMax= 7.69D-04  0.00D+00 EMaxC= 1.00D-01 BMatC= 7.23D-05 BMatP= 2.05D-03
 IDIUse=3 WtCom= 9.92D-01 WtEn= 7.69D-03
 Coeff-Com:  0.682D-01-0.127D+00-0.107D+00 0.162D-01 0.115D+01
 Coeff-En:   0.000D+00 0.000D+00 0.000D+00 0.000D+00 0.100D+01
 Coeff:      0.676D-01-0.126D+00-0.106D+00 0.161D-01 0.115D+01
 Gap=     0.418 Goal=   None    Shift=    0.000
 RMSDP=6.08D-05 MaxDP=3.61D-03 DE=-1.42D-03 OVMax= 6.54D-03

 Cycle   6  Pass 1  IDiag  1:
 E= -1544.24583175234     Delta-E=       -0.000227698287 Rises=F Damp=F
 DIIS: error= 4.72D-04 at cycle   6 NSaved=   6.
 NSaved= 6 IEnMin= 6 EnMin= -1544.24583175234     IErMin= 6 ErrMin= 4.72D-04
 ErrMax= 4.72D-04  0.00D+00 EMaxC= 1.00D-01 BMatC= 1.30D-05 BMatP= 7.23D-05
 IDIUse=3 WtCom= 9.95D-01 WtEn= 4.72D-03
 Coeff-Com: -0.204D-01 0.417D-01-0.277D-02-0.125D+00-0.243D+00 0.135D+01
 Coeff-En:   0.000D+00 0.000D+00 0.000D+00 0.000D+00 0.000D+00 0.100D+01
 Coeff:     -0.203D-01 0.415D-01-0.275D-02-0.124D+00-0.242D+00 0.135D+01
 Gap=     0.419 Goal=   None    Shift=    0.000
 RMSDP=2.94D-05 MaxDP=1.24D-03 DE=-2.28D-04 OVMax= 4.65D-03

 Cycle   7  Pass 1  IDiag  1:
 E= -1544.24588491471     Delta-E=       -0.000053162376 Rises=F Damp=F
 DIIS: error= 1.66D-04 at cycle   7 NSaved=   7.
 NSaved= 7 IEnMin= 7 EnMin= -1544.24588491471     IErMin= 7 ErrMin= 1.66D-04
 ErrMax= 1.66D-04  0.00D+00 EMaxC= 1.00D-01 BMatC= 2.78D-06 BMatP= 1.30D-05
 IDIUse=3 WtCom= 9.98D-01 WtEn= 1.66D-03
 Coeff-Com: -0.131D-01 0.250D-01 0.144D-01-0.995D-02-0.182D+00-0.595D-01
 Coeff-Com:  0.122D+01
 Coeff-En:   0.000D+00 0.000D+00 0.000D+00 0.000D+00 0.000D+00 0.000D+00
 Coeff-En:   0.100D+01
 Coeff:     -0.131D-01 0.250D-01 0.144D-01-0.994D-02-0.182D+00-0.594D-01
 Coeff:      0.122D+01
 Gap=     0.418 Goal=   None    Shift=    0.000
 RMSDP=1.56D-05 MaxDP=8.54D-04 DE=-5.32D-05 OVMax= 2.30D-03

 Cycle   8  Pass 1  IDiag  1:
 E= -1544.24589494584     Delta-E=       -0.000010031127 Rises=F Damp=F
 DIIS: error= 4.88D-05 at cycle   8 NSaved=   8.
 NSaved= 8 IEnMin= 8 EnMin= -1544.24589494584     IErMin= 8 ErrMin= 4.88D-05
 ErrMax= 4.88D-05  0.00D+00 EMaxC= 1.00D-01 BMatC= 5.00D-07 BMatP= 2.78D-06
 IDIUse=1 WtCom= 1.00D+00 WtEn= 0.00D+00
 Coeff-Com:  0.558D-04-0.551D-03 0.310D-02 0.197D-01 0.621D-02-0.290D+00
 Coeff-Com:  0.329D+00 0.933D+00
 Coeff:      0.558D-04-0.551D-03 0.310D-02 0.197D-01 0.621D-02-0.290D+00
 Coeff:      0.329D+00 0.933D+00
 Gap=     0.418 Goal=   None    Shift=    0.000
 RMSDP=5.92D-06 MaxDP=3.45D-04 DE=-1.00D-05 OVMax= 7.48D-04

 Cycle   9  Pass 1  IDiag  1:
 E= -1544.24589607349     Delta-E=       -0.000001127656 Rises=F Damp=F
 DIIS: error= 1.21D-05 at cycle   9 NSaved=   9.
 NSaved= 9 IEnMin= 9 EnMin= -1544.24589607349     IErMin= 9 ErrMin= 1.21D-05
 ErrMax= 1.21D-05  0.00D+00 EMaxC= 1.00D-01 BMatC= 3.91D-08 BMatP= 5.00D-07
 IDIUse=1 WtCom= 1.00D+00 WtEn= 0.00D+00
 Coeff-Com:  0.118D-02-0.238D-02-0.568D-03 0.450D-02 0.187D-01-0.499D-01
 Coeff-Com: -0.611D-01 0.192D+00 0.897D+00
 Coeff:      0.118D-02-0.238D-02-0.568D-03 0.450D-02 0.187D-01-0.499D-01
 Coeff:     -0.611D-01 0.192D+00 0.897D+00
 Gap=     0.418 Goal=   None    Shift=    0.000
 RMSDP=1.43D-06 MaxDP=9.14D-05 DE=-1.13D-06 OVMax= 1.30D-04

 Cycle  10  Pass 1  IDiag  1:
 E= -1544.24589615026     Delta-E=       -0.000000076765 Rises=F Damp=F
 DIIS: error= 4.97D-06 at cycle  10 NSaved=  10.
 NSaved=10 IEnMin=10 EnMin= -1544.24589615026     IErMin=10 ErrMin= 4.97D-06
 ErrMax= 4.97D-06  0.00D+00 EMaxC= 1.00D-01 BMatC= 3.97D-09 BMatP= 3.91D-08
 IDIUse=1 WtCom= 1.00D+00 WtEn= 0.00D+00
 Coeff-Com:  0.228D-03-0.356D-03-0.583D-03-0.265D-02 0.189D-02 0.351D-01
 Coeff-Com: -0.460D-01-0.124D+00-0.163D-01 0.115D+01
 Coeff:      0.228D-03-0.356D-03-0.583D-03-0.265D-02 0.189D-02 0.351D-01
 Coeff:     -0.460D-01-0.124D+00-0.163D-01 0.115D+01
 Gap=     0.418 Goal=   None    Shift=    0.000
 RMSDP=6.34D-07 MaxDP=2.58D-05 DE=-7.68D-08 OVMax= 4.97D-05

 Cycle  11  Pass 1  IDiag  1:
 E= -1544.24589616220     Delta-E=       -0.000000011943 Rises=F Damp=F
 DIIS: error= 1.20D-06 at cycle  11 NSaved=  11.
 NSaved=11 IEnMin=11 EnMin= -1544.24589616220     IErMin=11 ErrMin= 1.20D-06
 ErrMax= 1.20D-06  0.00D+00 EMaxC= 1.00D-01 BMatC= 2.31D-10 BMatP= 3.97D-09
 IDIUse=1 WtCom= 1.00D+00 WtEn= 0.00D+00
 Coeff-Com: -0.133D-03 0.250D-03 0.123D-03 0.125D-03-0.125D-02-0.184D-02
 Coeff-Com:  0.115D-01 0.425D-02-0.632D-01-0.170D+00 0.122D+01
 Coeff:     -0.133D-03 0.250D-03 0.123D-03 0.125D-03-0.125D-02-0.184D-02
 Coeff:      0.115D-01 0.425D-02-0.632D-01-0.170D+00 0.122D+01
 Gap=     0.418 Goal=   None    Shift=    0.000
 RMSDP=1.53D-07 MaxDP=9.68D-06 DE=-1.19D-08 OVMax= 1.30D-05

 Cycle  12  Pass 1  IDiag  1:
 E= -1544.24589616298     Delta-E=       -0.000000000783 Rises=F Damp=F
 DIIS: error= 5.36D-07 at cycle  12 NSaved=  12.
 NSaved=12 IEnMin=12 EnMin= -1544.24589616298     IErMin=12 ErrMin= 5.36D-07
 ErrMax= 5.36D-07  0.00D+00 EMaxC= 1.00D-01 BMatC= 3.53D-11 BMatP= 2.31D-10
 IDIUse=1 WtCom= 1.00D+00 WtEn= 0.00D+00
 Coeff-Com:  0.695D-05-0.200D-04 0.395D-04 0.194D-03-0.109D-03-0.308D-02
 Coeff-Com:  0.266D-02 0.123D-01 0.114D-01-0.825D-01-0.159D+00 0.122D+01
 Coeff:      0.695D-05-0.200D-04 0.395D-04 0.194D-03-0.109D-03-0.308D-02
 Coeff:      0.266D-02 0.123D-01 0.114D-01-0.825D-01-0.159D+00 0.122D+01
 Gap=     0.418 Goal=   None    Shift=    0.000
 RMSDP=3.91D-08 MaxDP=1.84D-06 DE=-7.83D-10 OVMax= 3.99D-06

 Cycle  13  Pass 1  IDiag  1:
 E= -1544.24589616309     Delta-E=       -0.000000000107 Rises=F Damp=F
 DIIS: error= 1.68D-07 at cycle  13 NSaved=  13.
 NSaved=13 IEnMin=13 EnMin= -1544.24589616309     IErMin=13 ErrMin= 1.68D-07
 ErrMax= 1.68D-07  0.00D+00 EMaxC= 1.00D-01 BMatC= 4.21D-12 BMatP= 3.53D-11
 IDIUse=1 WtCom= 1.00D+00 WtEn= 0.00D+00
 Coeff-Com:  0.130D-04-0.223D-04-0.304D-04-0.737D-04 0.215D-03 0.129D-02
 Coeff-Com: -0.245D-02-0.475D-02 0.354D-02 0.513D-01-0.104D+00-0.401D+00
 Coeff-Com:  0.146D+01
 Coeff:      0.130D-04-0.223D-04-0.304D-04-0.737D-04 0.215D-03 0.129D-02
 Coeff:     -0.245D-02-0.475D-02 0.354D-02 0.513D-01-0.104D+00-0.401D+00
 Coeff:      0.146D+01
 Gap=     0.418 Goal=   None    Shift=    0.000
 RMSDP=1.61D-08 MaxDP=3.82D-07 DE=-1.07D-10 OVMax= 1.91D-06

 Cycle  14  Pass 1  IDiag  1:
 E= -1544.24589616306     Delta-E=        0.000000000034 Rises=F Damp=F
 DIIS: error= 1.07D-07 at cycle  14 NSaved=  14.
 NSaved=14 IEnMin=13 EnMin= -1544.24589616309     IErMin=14 ErrMin= 1.07D-07
 ErrMax= 1.07D-07  0.00D+00 EMaxC= 1.00D-01 BMatC= 6.88D-13 BMatP= 4.21D-12
 IDIUse=1 WtCom= 1.00D+00 WtEn= 0.00D+00
 Coeff-Com: -0.606D-05 0.118D-04 0.250D-05-0.689D-05-0.481D-04 0.128D-03
 Coeff-Com:  0.278D-03-0.591D-03-0.277D-02-0.271D-02 0.563D-01-0.791D-01
 Coeff-Com: -0.361D+00 0.139D+01
 Coeff:     -0.606D-05 0.118D-04 0.250D-05-0.689D-05-0.481D-04 0.128D-03
 Coeff:      0.278D-03-0.591D-03-0.277D-02-0.271D-02 0.563D-01-0.791D-01
 Coeff:     -0.361D+00 0.139D+01
 Gap=     0.418 Goal=   None    Shift=    0.000
 RMSDP=6.95D-09 MaxDP=1.92D-07 DE= 3.41D-11 OVMax= 1.09D-06

 SCF Done:  E(RHF) =  -1544.24589616     A.U. after   14 cycles
            NFock= 14  Conv=0.70D-08     -V/T= 2.2686
 KE= 1.217264650098D+03 PE=-4.560456116213D+03 EE= 1.273301587776D+03
 Leave Link  502 at Thu Mar 24 17:18:50 2022, MaxMem=  1048576000 cpu:            1611.6 elap:             293.6
 (Enter /home/pcmt/gaussian/g16.C.01/g16/l801.exe)
 Range of M.O.s used for correlation:    22   253
 NBasis=   253 NAE=    41 NBE=    41 NFC=    21 NFV=     0
 NROrb=    232 NOA=    20 NOB=    20 NVA=   212 NVB=   212

 **** Warning!!: The largest alpha MO coefficient is  0.11410818D+02

 Leave Link  801 at Thu Mar 24 17:18:51 2022, MaxMem=  1048576000 cpu:               0.7 elap:               0.4
 (Enter /home/pcmt/gaussian/g16.C.01/g16/l906.exe)
 FulOut=F Deriv=F AODrv=F NAtomX=     5
   MMem=          86  MDisk=          20 MDiskD=          20
  W3Min=     1305920 MinDsk=     1755378 NBas6D=         308
 NBas2D=       48531    NTT=       47586    LW2=     7969600
    MDV=  1048182070 MDiskM=        7548 NBas2p=       28437
 Fully direct method using O(OVN) memory.
 IMap=   1   2   3   4   5   6   7   8   9  10  11  12  13  14  15  16  17  18  19  20
 JobTyp=1 Pass  1:  I=   1 to  20 NPSUse=  7 ParTrn=T ParDer=T DoDerP=F.
 Spin components of T(2) and E(2):
     alpha-alpha T2 =       0.7117402051D-01 E2=     -0.2027990311D+00
     alpha-beta  T2 =       0.3163138403D+00 E2=     -0.9863002414D+00
     beta-beta   T2 =       0.7117402051D-01 E2=     -0.2027990311D+00
 The integrals were generated   1 times.
 ANorm=    0.1207750753D+01
 E2 =    -0.1391898304D+01 EUMP2 =    -0.15456377944667D+04
 Leave Link  906 at Thu Mar 24 17:19:23 2022, MaxMem=  1048576000 cpu:             145.9 elap:              32.0
 (Enter /home/pcmt/gaussian/g16.C.01/g16/l601.exe)
 Copying SCF densities to generalized density rwf, IOpCl= 0 IROHF=0.

 **********************************************************************

            Population analysis using the SCF Density.

 **********************************************************************

 Orbital symmetries:
       Occupied  (B1) (A1) (A1) (B2) (A1) (B1) (A1) (B1) (A1) (B2)
                 (A1) (B1) (A1) (B1) (B2) (A2) (A1) (A2) (B2) (B1)
                 (A1) (A1) (B2) (A1) (B1) (A1) (A1) (B1) (B2) (A2)
                 (B2) (A1) (B1) (A1) (B2) (A1) (B1) (A1) (B1) (A2)
                 (B2)
       Virtual   (A1) (B1) (A1) (A2) (B2) (A1) (B1) (B2) (A1) (B1)
                 (A1) (B1) (A1) (B2) (A2) (B2) (A1) (B2) (A1) (B1)
                 (A2) (B2) (A1) (B1) (A1) (B2) (A1) (B1) (A2) (B2)
                 (B1) (A2) (A1) (B1) (B2) (A1) (B1) (A1) (A2) (B1)
                 (A1) (B2) (A1) (B2) (B1) (A2) (A1) (B1) (B2) (A1)
                 (A1) (B2) (A2) (B1) (A1) (B2) (A1) (B1) (A1) (A1)
                 (B1) (B2) (B1) (A1) (A2) (A1) (B1) (B2) (A1) (B1)
                 (B2) (A2) (B2) (A2) (A1) (A2) (B2) (A1) (A2) (B1)
                 (A1) (B2) (B1) (B2) (A1) (A1) (B1) (B1) (B2) (A2)
                 (B2) (A1) (B1) (A2) (B1) (A1) (A2) (A1) (B2) (B2)
                 (B1) (A1) (B1) (B1) (A1) (A2) (B2) (A1) (B2) (B1)
                 (A1) (A2) (B1) (A1) (A2) (B1) (A1) (B2) (B2) (A2)
                 (A1) (A1) (B1) (B2) (A1) (B1) (A2) (A1) (B2) (A1)
                 (B2) (B2) (B2) (A2) (B1) (A1) (B1) (A1) (A1) (B1)
                 (A2) (B2) (B1) (B2) (A1) (A2) (B2) (A2) (A1) (A1)
                 (B1) (B2) (A1) (A1) (B1) (B1) (A1) (A2) (B2) (B2)
                 (A2) (A1) (B2) (B1) (A2) (A1) (B1) (B2) (A1) (B1)
                 (A1) (B2) (A2) (A1) (B2) (A1) (B2) (A2) (B1) (A1)
                 (B1) (A2) (A1) (B2) (B1) (A1) (A2) (B2) (A1) (B1)
                 (A1) (B1) (B2) (A2) (A1) (A1) (B1) (B2) (A1) (B1)
                 (A1) (A1) (B2) (A1) (B1) (B2) (A1) (A1) (B1) (B2)
                 (A1) (A1)
 The electronic state is 1-A1.
 Alpha  occ. eigenvalues -- -104.79983-104.79983 -20.63933 -20.63932 -13.22004
 Alpha  occ. eigenvalues --  -10.53011 -10.53011  -8.48707  -8.48400  -8.46217
 Alpha  occ. eigenvalues --   -7.99645  -7.99645  -7.99602  -7.99602  -7.99576
 Alpha  occ. eigenvalues --   -7.99576  -4.49482  -4.47066  -4.47036  -4.47020
 Alpha  occ. eigenvalues --   -4.46954  -2.37141  -1.60697  -1.33409  -1.29330
 Alpha  occ. eigenvalues --   -1.27889  -1.04483  -1.02838  -0.99713  -0.63322
 Alpha  occ. eigenvalues --   -0.62979  -0.61368  -0.59006  -0.58875  -0.58293
 Alpha  occ. eigenvalues --   -0.48924  -0.47900  -0.45653  -0.44747  -0.44367
 Alpha  occ. eigenvalues --   -0.44094
 Alpha virt. eigenvalues --   -0.02251   0.02947   0.04874   0.06052   0.06067
 Alpha virt. eigenvalues --    0.07301   0.07327   0.08067   0.08553   0.12392
 Alpha virt. eigenvalues --    0.12620   0.13451   0.16104   0.19477   0.22418
 Alpha virt. eigenvalues --    0.23785   0.28026   0.30145   0.32570   0.34514
 Alpha virt. eigenvalues --    0.36466   0.36997   0.39945   0.40069   0.44476
 Alpha virt. eigenvalues --    0.45819   0.46827   0.48843   0.50652   0.53734
 Alpha virt. eigenvalues --    0.54084   0.54461   0.56229   0.57349   0.57392
 Alpha virt. eigenvalues --    0.58014   0.60961   0.65153   0.67207   0.70027
 Alpha virt. eigenvalues --    0.72213   0.72847   0.76423   0.80089   0.81407
 Alpha virt. eigenvalues --    0.82568   0.84129   0.85724   0.86110   0.86444
 Alpha virt. eigenvalues --    0.88123   0.89731   0.95064   0.95192   0.96201
 Alpha virt. eigenvalues --    1.04168   1.24385   1.29910   1.38311   1.44264
 Alpha virt. eigenvalues --    1.51666   1.61001   1.62757   1.65077   1.65170
 Alpha virt. eigenvalues --    1.68532   1.70756   1.71123   1.74123   1.74179
 Alpha virt. eigenvalues --    1.83539   1.83876   1.85765   1.88363   1.91096
 Alpha virt. eigenvalues --    2.01561   2.02859   2.05322   2.12102   2.13617
 Alpha virt. eigenvalues --    2.16545   2.16826   2.19884   2.22143   2.23840
 Alpha virt. eigenvalues --    2.25069   2.25737   2.26442   2.29870   2.32297
 Alpha virt. eigenvalues --    2.39904   2.40423   2.41350   2.42050   2.42900
 Alpha virt. eigenvalues --    2.42916   2.43098   2.43550   2.46000   2.46941
 Alpha virt. eigenvalues --    2.48123   2.51941   2.53201   2.58437   2.59107
 Alpha virt. eigenvalues --    2.59178   2.62343   2.62494   2.64262   2.66669
 Alpha virt. eigenvalues --    2.67881   2.75619   2.77361   2.79365   2.80199
 Alpha virt. eigenvalues --    2.84748   2.85529   2.86010   2.90425   2.92147
 Alpha virt. eigenvalues --    3.02983   3.16205   3.18621   3.35381   3.35906
 Alpha virt. eigenvalues --    3.39803   3.40701   3.43462   3.49168   4.40366
 Alpha virt. eigenvalues --    4.82792   4.92333   5.05564   5.08578   5.15009
 Alpha virt. eigenvalues --    5.20626   5.36835   5.37612   5.46118   5.48131
 Alpha virt. eigenvalues --    5.48516   5.48746   5.50036   5.50920   5.50936
 Alpha virt. eigenvalues --    5.51146   5.58716   5.60180   5.63061   5.74184
 Alpha virt. eigenvalues --    5.75160   5.83957   6.52402   6.61372   6.62775
 Alpha virt. eigenvalues --    6.63405   6.67589   6.68404   6.69483   6.76063
 Alpha virt. eigenvalues --    6.76119   6.77095   6.77332   6.78707   6.82656
 Alpha virt. eigenvalues --    6.90462   6.91583   7.02996   7.12680   7.13709
 Alpha virt. eigenvalues --    7.34401   7.58185   7.61502   7.66837   8.04093
 Alpha virt. eigenvalues --    8.62308   8.63751   8.66703   8.76612  10.17480
 Alpha virt. eigenvalues --   11.50934  11.52018  11.52291  11.53796  11.72938
 Alpha virt. eigenvalues --   11.76531  14.08847  14.09802  14.11214  14.11283
 Alpha virt. eigenvalues --   14.15213  14.17402  14.48125  14.48340  14.96547
 Alpha virt. eigenvalues --   22.02688  22.09482  22.31717  25.88213  25.94392
 Alpha virt. eigenvalues --   32.25330  45.18928  45.43018  48.51578  48.57628
 Alpha virt. eigenvalues --   48.77247  59.82799 122.74160 122.82537 123.07536
 Alpha virt. eigenvalues --  229.54755 674.09945
     Molecular Orbital Coefficients:
                           1         2         3         4         5
                        (B1)--O   (A1)--O   (A1)--O   (B2)--O   (A1)--O
     Eigenvalues --  -104.79983-104.79983 -20.63933 -20.63932 -13.22004
   1 1   U  1S          0.00000  -0.00000   0.00000   0.00000  -0.00355
   2        2S          0.00000  -0.00002   0.00001   0.00000  -0.53638
   3        3S          0.00000   0.00000  -0.00000   0.00000   0.00626
   4        4S          0.00000   0.00003  -0.00002   0.00000   1.28143
   5        5S          0.00000  -0.00009   0.00002   0.00000  -1.06844
   6        6S          0.00000   0.00014   0.00024   0.00000  -0.43287
   7        7S          0.00000  -0.00003  -0.00152   0.00000  -0.01350
   8        8S          0.00000  -0.00038   0.00187   0.00000   0.00041
   9        9S          0.00000   0.00181  -0.00262   0.00000  -0.00008
  10       10S          0.00000  -0.00035   0.00048   0.00000   0.00003
  11       11PX        -0.00000   0.00000   0.00000   0.00000   0.00000
  12       11PY         0.00000   0.00000   0.00000  -0.00000   0.00000
  13       11PZ         0.00000   0.00000   0.00000   0.00000   0.00002
  14       12PX         0.00001   0.00000   0.00000   0.00000   0.00000
  15       12PY         0.00000   0.00000   0.00000   0.00000   0.00000
  16       12PZ         0.00000  -0.00001  -0.00000   0.00000  -0.00008
  17       13PX        -0.00003   0.00000   0.00000   0.00000   0.00000
  18       13PY         0.00000   0.00000   0.00000   0.00000   0.00000
  19       13PZ         0.00000   0.00002   0.00001   0.00000   0.00012
  20       14PX         0.00005   0.00000   0.00000   0.00000   0.00000
  21       14PY         0.00000   0.00000   0.00000  -0.00001   0.00000
  22       14PZ         0.00000  -0.00003  -0.00001   0.00000   0.00018
  23       15PX        -0.00006   0.00000   0.00000   0.00000   0.00000
  24       15PY         0.00000   0.00000   0.00000   0.00006   0.00000
  25       15PZ         0.00000   0.00004   0.00001   0.00000  -0.00041
  26       16PX         0.00008   0.00000   0.00000   0.00000   0.00000
  27       16PY         0.00000   0.00000   0.00000  -0.00132   0.00000
  28       16PZ         0.00000  -0.00005  -0.00000   0.00000   0.00006
  29       17PX        -0.00035   0.00000   0.00000   0.00000   0.00000
  30       17PY         0.00000   0.00000   0.00000   0.00341   0.00000
  31       17PZ         0.00000   0.00023  -0.00005   0.00000  -0.00004
  32       18PX         0.00160   0.00000   0.00000   0.00000   0.00000
  33       18PY         0.00000   0.00000   0.00000  -0.00516   0.00000
  34       18PZ         0.00000  -0.00102   0.00017   0.00000  -0.00004
  35       19PX         0.00007   0.00000   0.00000   0.00000   0.00000
  36       19PY         0.00000   0.00000   0.00000   0.00022   0.00000
  37       19PZ         0.00000  -0.00002  -0.00003   0.00000   0.00000
  38       20D 0        0.00000   0.00001  -0.00005   0.00000  -0.00127
  39       20D+1        0.00004   0.00000   0.00000   0.00000   0.00000
  40       20D-1        0.00000   0.00000   0.00000   0.00000   0.00000
  41       20D+2        0.00000  -0.00003  -0.00006   0.00000  -0.00230
  42       20D-2        0.00000   0.00000   0.00000   0.00000   0.00000
  43       21D 0        0.00000  -0.00002   0.00019   0.00000   0.00064
  44       21D+1       -0.00009   0.00000   0.00000   0.00000   0.00000
  45       21D-1        0.00000   0.00000   0.00000  -0.00001   0.00000
  46       21D+2        0.00000   0.00007   0.00026   0.00000   0.00064
  47       21D-2        0.00000   0.00000   0.00000   0.00000   0.00000
  48       22D 0        0.00000   0.00002  -0.00024   0.00000  -0.00032
  49       22D+1        0.00015   0.00000   0.00000   0.00000   0.00000
  50       22D-1        0.00000   0.00000   0.00000   0.00001   0.00000
  51       22D+2        0.00000  -0.00013  -0.00033   0.00000  -0.00041
  52       22D-2        0.00000   0.00000   0.00000   0.00000   0.00000
  53       23D 0        0.00000   0.00000  -0.00058   0.00000   0.00013
  54       23D+1       -0.00026   0.00000   0.00000   0.00000   0.00000
  55       23D-1        0.00000   0.00000   0.00000  -0.00001   0.00000
  56       23D+2        0.00000   0.00027  -0.00109   0.00000   0.00022
  57       23D-2        0.00000   0.00000   0.00000   0.00000   0.00000
  58       24D 0        0.00000  -0.00014   0.00065   0.00000  -0.00001
  59       24D+1       -0.00071   0.00000   0.00000   0.00000   0.00000
  60       24D-1        0.00000   0.00000   0.00000   0.00013   0.00000
  61       24D+2        0.00000   0.00058   0.00094   0.00000   0.00005
  62       24D-2        0.00000   0.00000   0.00000   0.00000   0.00000
  63       25F 0        0.00000  -0.00000  -0.00000   0.00000  -0.00013
  64       25F+1       -0.00000   0.00000   0.00000   0.00000   0.00000
  65       25F-1        0.00000   0.00000   0.00000  -0.00004   0.00000
  66       25F+2        0.00000  -0.00000   0.00000   0.00000   0.00016
  67       25F-2        0.00000   0.00000   0.00000   0.00000   0.00000
  68       25F+3        0.00001   0.00000   0.00000   0.00000   0.00000
  69       25F-3        0.00000   0.00000   0.00000  -0.00005   0.00000
  70       26F 0        0.00000   0.00000   0.00001   0.00000  -0.00002
  71       26F+1        0.00000   0.00000   0.00000   0.00000   0.00000
  72       26F-1        0.00000   0.00000   0.00000   0.00006   0.00000
  73       26F+2        0.00000   0.00002  -0.00001   0.00000   0.00001
  74       26F-2        0.00000   0.00000   0.00000   0.00000   0.00000
  75       26F+3       -0.00003   0.00000   0.00000   0.00000   0.00000
  76       26F-3        0.00000   0.00000   0.00000   0.00006   0.00000
  77       27F 0        0.00000   0.00000  -0.00001   0.00000   0.00001
  78       27F+1       -0.00001   0.00000   0.00000   0.00000   0.00000
  79       27F-1        0.00000   0.00000   0.00000  -0.00100   0.00000
  80       27F+2        0.00000  -0.00005   0.00000   0.00000  -0.00000
  81       27F-2        0.00000   0.00000   0.00000   0.00000   0.00000
  82       27F+3        0.00007   0.00000   0.00000   0.00000   0.00000
  83       27F-3        0.00000   0.00000   0.00000  -0.00126   0.00000
  84       28F 0        0.00000   0.00028  -0.00006   0.00000   0.00001
  85       28F+1        0.00010   0.00000   0.00000   0.00000   0.00000
  86       28F-1        0.00000   0.00000   0.00000   0.00056   0.00000
  87       28F+2        0.00000  -0.00025   0.00013   0.00000  -0.00004
  88       28F-2        0.00000   0.00000   0.00000   0.00000   0.00000
  89       28F+3       -0.00002   0.00000   0.00000   0.00000   0.00000
  90       28F-3        0.00000   0.00000   0.00000   0.00064   0.00000
  91       29G 0        0.00000  -0.00001   0.00001   0.00000   0.00001
  92       29G+1        0.00001   0.00000   0.00000   0.00000   0.00000
  93       29G-1        0.00000   0.00000   0.00000  -0.00000   0.00000
  94       29G+2        0.00000   0.00000   0.00001   0.00000  -0.00002
  95       29G-2        0.00000   0.00000   0.00000   0.00000   0.00000
  96       29G+3       -0.00001   0.00000   0.00000   0.00000   0.00000
  97       29G-3        0.00000   0.00000   0.00000  -0.00000   0.00000
  98       29G+4        0.00000   0.00000   0.00002   0.00000  -0.00001
  99       29G-4        0.00000   0.00000   0.00000   0.00000   0.00000
 100       30G 0        0.00000   0.00002  -0.00003   0.00000  -0.00002
 101       30G+1       -0.00002   0.00000   0.00000   0.00000   0.00000
 102       30G-1        0.00000   0.00000   0.00000   0.00000   0.00000
 103       30G+2        0.00000  -0.00001  -0.00004   0.00000  -0.00004
 104       30G-2        0.00000   0.00000   0.00000   0.00000   0.00000
 105       30G+3        0.00002   0.00000   0.00000   0.00000   0.00000
 106       30G-3        0.00000   0.00000   0.00000   0.00000   0.00000
 107       30G+4        0.00000  -0.00000  -0.00005   0.00000  -0.00005
 108       30G-4        0.00000   0.00000   0.00000   0.00000   0.00000
 109       31G 0        0.00000  -0.00003   0.00011   0.00000  -0.00002
 110       31G+1        0.00002   0.00000   0.00000   0.00000   0.00000
 111       31G-1        0.00000   0.00000   0.00000  -0.00001   0.00000
 112       31G+2        0.00000   0.00001   0.00015   0.00000  -0.00000
 113       31G-2        0.00000   0.00000   0.00000   0.00000   0.00000
 114       31G+3       -0.00003   0.00000   0.00000   0.00000   0.00000
 115       31G-3        0.00000   0.00000   0.00000  -0.00000   0.00000
 116       31G+4        0.00000  -0.00000   0.00020   0.00000  -0.00001
 117       31G-4        0.00000   0.00000   0.00000   0.00000   0.00000
 118 2   O  1S          0.00000  -0.00000   0.30807   0.30808   0.00001
 119        2S          0.00000   0.00000   0.45425   0.45422   0.00002
 120        3S          0.00000  -0.00002   0.01551   0.01589   0.00002
 121        4S          0.00000   0.00009  -0.00659  -0.00777  -0.00007
 122        5S          0.00000  -0.00007   0.00368   0.00590   0.00014
 123        6PX         0.00000   0.00000   0.00000   0.00000   0.00000
 124        6PY         0.00000   0.00000  -0.00091  -0.00098   0.00002
 125        6PZ         0.00000  -0.00000   0.00005   0.00004  -0.00000
 126        7PX         0.00000   0.00000   0.00000   0.00000   0.00000
 127        7PY         0.00000  -0.00004   0.00098   0.00165   0.00004
 128        7PZ         0.00000  -0.00000  -0.00002  -0.00001   0.00000
 129        8PX        -0.00019   0.00000   0.00000   0.00000   0.00000
 130        8PY         0.00000   0.00003  -0.00034  -0.00124  -0.00005
 131        8PZ         0.00000   0.00010   0.00004  -0.00004  -0.00001
 132        9D 0        0.00000  -0.00000  -0.00007  -0.00007  -0.00000
 133        9D+1       -0.00001   0.00000   0.00000   0.00000   0.00000
 134        9D-1        0.00000   0.00000  -0.00000  -0.00000   0.00000
 135        9D+2        0.00000   0.00001  -0.00012  -0.00012  -0.00000
 136        9D-2       -0.00001   0.00000   0.00000   0.00000   0.00000
 137       10D 0        0.00000   0.00000   0.00015   0.00026   0.00003
 138       10D+1        0.00003   0.00000   0.00000   0.00000   0.00000
 139       10D-1        0.00000  -0.00001  -0.00001   0.00000  -0.00000
 140       10D+2        0.00000  -0.00003   0.00028   0.00047   0.00004
 141       10D-2        0.00002   0.00000   0.00000   0.00000   0.00000
 142       11F 0        0.00000   0.00000   0.00000  -0.00000  -0.00000
 143       11F+1       -0.00000   0.00000   0.00000   0.00000   0.00000
 144       11F-1        0.00000  -0.00000  -0.00003  -0.00004  -0.00003
 145       11F+2        0.00000   0.00000   0.00000   0.00000   0.00000
 146       11F-2       -0.00000   0.00000   0.00000   0.00000   0.00000
 147       11F+3       -0.00001   0.00000   0.00000   0.00000   0.00000
 148       11F-3        0.00000   0.00000  -0.00004  -0.00006  -0.00004
 149 3   O  1S          0.00000  -0.00000   0.30807  -0.30808   0.00001
 150        2S          0.00000   0.00000   0.45425  -0.45422   0.00002
 151        3S          0.00000  -0.00002   0.01551  -0.01589   0.00002
 152        4S          0.00000   0.00009  -0.00659   0.00777  -0.00007
 153        5S          0.00000  -0.00007   0.00368  -0.00590   0.00014
 154        6PX         0.00000   0.00000   0.00000   0.00000   0.00000
 155        6PY         0.00000  -0.00000   0.00091  -0.00098  -0.00002
 156        6PZ         0.00000  -0.00000   0.00005  -0.00004  -0.00000
 157        7PX         0.00000   0.00000   0.00000   0.00000   0.00000
 158        7PY         0.00000   0.00004  -0.00098   0.00165  -0.00004
 159        7PZ         0.00000  -0.00000  -0.00002   0.00001   0.00000
 160        8PX        -0.00019   0.00000   0.00000   0.00000   0.00000
 161        8PY         0.00000  -0.00003   0.00034  -0.00124   0.00005
 162        8PZ         0.00000   0.00010   0.00004   0.00004  -0.00001
 163        9D 0        0.00000  -0.00000  -0.00007   0.00007  -0.00000
 164        9D+1       -0.00001   0.00000   0.00000   0.00000   0.00000
 165        9D-1        0.00000  -0.00000   0.00000  -0.00000  -0.00000
 166        9D+2        0.00000   0.00001  -0.00012   0.00012  -0.00000
 167        9D-2        0.00001   0.00000   0.00000   0.00000   0.00000
 168       10D 0        0.00000   0.00000   0.00015  -0.00026   0.00003
 169       10D+1        0.00003   0.00000   0.00000   0.00000   0.00000
 170       10D-1        0.00000   0.00001   0.00001   0.00000   0.00000
 171       10D+2        0.00000  -0.00003   0.00028  -0.00047   0.00004
 172       10D-2       -0.00002   0.00000   0.00000   0.00000   0.00000
 173       11F 0        0.00000   0.00000   0.00000   0.00000  -0.00000
 174       11F+1       -0.00000   0.00000   0.00000   0.00000   0.00000
 175       11F-1        0.00000   0.00000   0.00003  -0.00004   0.00003
 176       11F+2        0.00000   0.00000   0.00000  -0.00000   0.00000
 177       11F-2        0.00000   0.00000   0.00000   0.00000   0.00000
 178       11F+3       -0.00001   0.00000   0.00000   0.00000   0.00000
 179       11F-3        0.00000  -0.00000   0.00004  -0.00006   0.00004
 180 4   Cl 1S          0.70681   0.70681   0.00000   0.00000   0.00000
 181        2S         -0.02098  -0.02097  -0.00000   0.00000   0.00000
 182        3S         -0.00525  -0.00524  -0.00000   0.00000  -0.00000
 183        4S          0.00204   0.00202  -0.00005   0.00000   0.00002
 184        5S         -0.00192  -0.00195   0.00022   0.00000  -0.00007
 185        6PX        -0.00003  -0.00003   0.00000   0.00000  -0.00000
 186        6PY         0.00000   0.00000   0.00000   0.00000   0.00000
 187        6PZ         0.00002   0.00002  -0.00000   0.00000  -0.00000
 188        7PX         0.00005   0.00004  -0.00001   0.00000   0.00000
 189        7PY         0.00000   0.00000   0.00000  -0.00000   0.00000
 190        7PZ        -0.00003  -0.00003   0.00000   0.00000  -0.00000
 191        8PX        -0.00008  -0.00007   0.00004   0.00000  -0.00001
 192        8PY         0.00000   0.00000   0.00000   0.00001   0.00000
 193        8PZ         0.00004   0.00004  -0.00002   0.00000   0.00001
 194        9PX         0.00008   0.00008  -0.00010   0.00000   0.00003
 195        9PY         0.00000   0.00000   0.00000  -0.00002   0.00000
 196        9PZ        -0.00004  -0.00004   0.00005   0.00000  -0.00002
 197       10PX         0.00051   0.00049  -0.00006   0.00000   0.00001
 198       10PY         0.00000   0.00000   0.00000   0.00012   0.00000
 199       10PZ        -0.00025  -0.00037   0.00006   0.00000  -0.00002
 200       11D 0       -0.00002  -0.00000  -0.00000   0.00000   0.00000
 201       11D+1       -0.00004  -0.00005  -0.00000   0.00000   0.00000
 202       11D-1        0.00000   0.00000   0.00000   0.00000   0.00000
 203       11D+2        0.00004   0.00003   0.00000   0.00000  -0.00000
 204       11D-2        0.00000   0.00000   0.00000  -0.00000   0.00000
 205       12D 0        0.00005   0.00001  -0.00000   0.00000   0.00000
 206       12D+1        0.00014   0.00016  -0.00004   0.00000   0.00001
 207       12D-1        0.00000   0.00000   0.00000   0.00001   0.00000
 208       12D+2       -0.00012  -0.00011   0.00002   0.00000  -0.00001
 209       12D-2        0.00000   0.00000   0.00000  -0.00001   0.00000
 210       13F 0        0.00001   0.00001   0.00000   0.00000   0.00000
 211       13F+1       -0.00000   0.00001  -0.00001   0.00000   0.00000
 212       13F-1        0.00000   0.00000   0.00000   0.00000   0.00000
 213       13F+2       -0.00002  -0.00002   0.00001   0.00000  -0.00000
 214       13F-2        0.00000   0.00000   0.00000   0.00001   0.00000
 215       13F+3        0.00001   0.00001  -0.00002   0.00000   0.00000
 216       13F-3        0.00000   0.00000   0.00000  -0.00000   0.00000
 217 5   Cl 1S         -0.70681   0.70681   0.00000   0.00000   0.00000
 218        2S          0.02098  -0.02097  -0.00000   0.00000   0.00000
 219        3S          0.00525  -0.00524  -0.00000   0.00000  -0.00000
[...]
 210       13F 0        0.00012
 211       13F+1        0.00032
 212       13F-1        0.00001
 213       13F+2        0.00038
 214       13F-2        0.00014
 215       13F+3        0.00027
 216       13F-3        0.00018
 217 5   Cl 1S          2.01180
 218        2S          0.44590
 219        3S          1.51649
 220        4S          1.06508
 221        5S          0.92575
 222        6PX         1.39301
 223        6PY         1.39819
 224        6PZ         1.39381
 225        7PX         0.56519
 226        7PY         0.56167
 227        7PZ         0.56464
 228        8PX         0.34036
 229        8PY         0.37330
 230        8PZ         0.34774
 231        9PX         0.96187
 232        9PY         1.01166
 233        9PZ         0.96019
 234       10PX         0.52221
 235       10PY         0.58011
 236       10PZ         0.55435
 237       11D 0        0.00059
 238       11D+1        0.00143
 239       11D-1        0.00022
 240       11D+2        0.00113
 241       11D-2        0.00050
 242       12D 0        0.00459
 243       12D+1        0.00683
 244       12D-1        0.00131
 245       12D+2        0.00546
 246       12D-2        0.00284
 247       13F 0        0.00012
 248       13F+1        0.00032
 249       13F-1        0.00001
 250       13F+2        0.00038
 251       13F-2        0.00014
 252       13F+3        0.00027
 253       13F-3        0.00018
          Condensed to atoms (all electrons):
               1          2          3          4          5
     1  U   28.738025   0.385000   0.385000   0.171562   0.171562
     2  O    0.385000   8.153648   0.002703   0.006718   0.006718
     3  O    0.385000   0.002703   8.153648   0.006718   0.006718
     4  Cl   0.171562   0.006718   0.006718  17.332823   0.001815
     5  Cl   0.171562   0.006718   0.006718   0.001815  17.332823
 Mulliken charges:
               1
     1  U    2.148850
     2  O   -0.554788
     3  O   -0.554788
     4  Cl  -0.519637
     5  Cl  -0.519637
 Sum of Mulliken charges =  -0.00000
 Mulliken charges with hydrogens summed into heavy atoms:
               1
     1  U    2.148850
     2  O   -0.554788
     3  O   -0.554788
     4  Cl  -0.519637
     5  Cl  -0.519637
 Electronic spatial extent (au):  <R**2>=           1039.3008
 Charge=              0.0000 electrons
 Dipole moment (field-independent basis, Debye):
    X=              0.0000    Y=             -0.0000    Z=              6.1369  Tot=              6.1369
 Quadrupole moment (field-independent basis, Debye-Ang):
   XX=            -84.4167   YY=            -81.3919   ZZ=            -67.6040
   XY=              0.0000   XZ=              0.0000   YZ=              0.0000
 Traceless Quadrupole moment (field-independent basis, Debye-Ang):
   XX=             -6.6125   YY=             -3.5877   ZZ=             10.2002
   XY=              0.0000   XZ=              0.0000   YZ=              0.0000
 Octapole moment (field-independent basis, Debye-Ang**2):
  XXX=              0.0000  YYY=             -0.0000  ZZZ=             51.0363  XYY=              0.0000
  XXY=             -0.0000  XXZ=             27.6422  XZZ=              0.0000  YZZ=             -0.0000
  YYZ=             10.1285  XYZ=             -0.0000
 Hexadecapole moment (field-independent basis, Debye-Ang**3):
 XXXX=           -864.9304 YYYY=           -306.8582 ZZZZ=           -250.2476 XXXY=              0.0000
 XXXZ=              0.0000 YYYX=              0.0000 YYYZ=              0.0000 ZZZX=             -0.0000
 ZZZY=              0.0000 XXYY=           -185.0008 XXZZ=           -183.4595 YYZZ=            -91.5829
 XXYZ=              0.0000 YYXZ=              0.0000 ZZXY=              0.0000
 N-N= 5.256439821763D+02 E-N=-4.560456116671D+03  KE= 1.217264650098D+03
 Symmetry A1   KE= 5.496485407211D+02
 Symmetry A2   KE= 6.444444895281D+01
 Symmetry B1   KE= 4.501995527317D+02
 Symmetry B2   KE= 1.529721076928D+02
 Orbital energies and kinetic energies (alpha):
                                 1                 2
   1         (B1)--O        -104.799834        137.128653
   2         (A1)--O        -104.799834        137.128535
   3         (A1)--O         -20.639330         29.198660
   4         (B2)--O         -20.639325         29.198434
   5         (A1)--O         -13.220040          4.747286
   6         (B1)--O         -10.530107         21.789594
   7         (A1)--O         -10.530106         21.789659
   8         (B1)--O          -8.487068          5.137118
   9         (A1)--O          -8.483997          5.135981
  10         (B2)--O          -8.462171          5.131128
  11         (A1)--O          -7.996450         20.624948
  12         (B1)--O          -7.996450         20.624861
  13         (A1)--O          -7.996021         20.630053
  14         (B1)--O          -7.996021         20.630052
  15         (B2)--O          -7.995765         20.640793
  16         (A2)--O          -7.995764         20.640747
  17         (A1)--O          -4.494824          7.314375
  18         (A2)--O          -4.470662          7.310921
  19         (B2)--O          -4.470358          7.308759
  20         (B1)--O          -4.470200          7.333438
  21         (A1)--O          -4.469545          7.328127
  22         (A1)--O          -2.371411          2.758278
  23         (B2)--O          -1.606971          2.410502
  24         (A1)--O          -1.334089          3.205689
  25         (B1)--O          -1.293305          2.346411
  26         (A1)--O          -1.278893          2.413111
  27         (A1)--O          -1.044832          3.004208
  28         (B1)--O          -1.028383          3.089355
  29         (B2)--O          -0.997129          3.247034
  30         (A2)--O          -0.633215          2.002702
  31         (B2)--O          -0.629793          2.019966
  32         (A1)--O          -0.613676          2.596243
  33         (B1)--O          -0.590056          2.577028
  34         (A1)--O          -0.588747          2.573296
  35         (B2)--O          -0.582927          4.156280
  36         (A1)--O          -0.489239          2.269749
  37         (B1)--O          -0.479003          2.246413
  38         (A1)--O          -0.456525          2.106073
  39         (B1)--O          -0.447471          2.196853
  40         (A2)--O          -0.443668          2.267855
  41         (B2)--O          -0.440940          2.373157
  42         (A1)--V          -0.022511          0.538900
  43         (B1)--V           0.029473          1.448522
  44         (A1)--V           0.048740          3.427183
  45         (A2)--V           0.060515          5.279399
  46         (B2)--V           0.060674          5.080557
  47         (A1)--V           0.073014          1.788540
  48         (B1)--V           0.073272          4.913852
  49         (B2)--V           0.080668          0.488562
  50         (A1)--V           0.085533          1.225076
  51         (B1)--V           0.123922          1.244192
  52         (A1)--V           0.126198          4.045169
  53         (B1)--V           0.134511          5.158249
  54         (A1)--V           0.161037          2.815833
  55         (B2)--V           0.194768          1.734954
  56         (A2)--V           0.224182          1.889709
  57         (B2)--V           0.237853          3.865486
  58         (A1)--V           0.280261          0.662297
  59         (B2)--V           0.301450          2.058720
  60         (A1)--V           0.325697          1.341448
  61         (B1)--V           0.345142          1.316685
  62         (A2)--V           0.364655          1.334065
  63         (B2)--V           0.369973          1.379747
  64         (A1)--V           0.399446          1.488125
  65         (B1)--V           0.400690          1.285611
  66         (A1)--V           0.444758          1.520429
  67         (B2)--V           0.458195          1.652363
  68         (A1)--V           0.468274          1.503848
  69         (B1)--V           0.488432          1.668005
  70         (A2)--V           0.506524          1.670295
  71         (B2)--V           0.537339          1.458785
  72         (B1)--V           0.540844          1.775994
  73         (A2)--V           0.544614          1.730490
  74         (A1)--V           0.562285          1.507258
  75         (B1)--V           0.573492          1.777022
  76         (B2)--V           0.573920          2.112898
  77         (A1)--V           0.580143          1.452012
  78         (B1)--V           0.609614          1.615390
  79         (A1)--V           0.651527          1.462767
  80         (A2)--V           0.672070          1.524165
  81         (B1)--V           0.700270          1.544123
  82         (A1)--V           0.722128          1.474086
  83         (B2)--V           0.728470          1.628445
  84         (A1)--V           0.764226          1.820631
  85         (B2)--V           0.800886          1.530588
  86         (B1)--V           0.814068          2.045209
  87         (A2)--V           0.825683          1.631219
  88         (A1)--V           0.841292          2.173225
  89         (B1)--V           0.857237          1.671942
  90         (B2)--V           0.861104          1.847907
  91         (A1)--V           0.864438          1.962605
  92         (A1)--V           0.881232          2.518234
  93         (B2)--V           0.897306          1.519837
  94         (A2)--V           0.950644          1.869321
  95         (B1)--V           0.951917          1.811401
  96         (A1)--V           0.962010          2.075966
  97         (B2)--V           1.041681          2.009659
  98         (A1)--V           1.243850          4.172620
  99         (B1)--V           1.299096          4.338041
 100         (A1)--V           1.383108          3.980103
 101         (A1)--V           1.442637          3.663025
 102         (B1)--V           1.516659          3.702773
 103         (B2)--V           1.610011          4.168504
 104         (B1)--V           1.627573          4.024062
 105         (A1)--V           1.650770          3.325134
 106         (A2)--V           1.651701          4.225117
 107         (A1)--V           1.685324          4.494422
 108         (B1)--V           1.707564          4.481158
 109         (B2)--V           1.711231          3.876230
 110         (A1)--V           1.741233          3.728473
 111         (B1)--V           1.741788          3.200777
 112         (B2)--V           1.835387          3.111794
 113         (A2)--V           1.838758          3.151469
 114         (B2)--V           1.857649          2.928043
 115         (A2)--V           1.883632          2.983032
 116         (A1)--V           1.910956          3.931740
 117         (A2)--V           2.015606          4.968854
 118         (B2)--V           2.028587          5.061350
 119         (A1)--V           2.053224          4.862255
 120         (A2)--V           2.121021          4.896287
 121         (B1)--V           2.136166          4.952363
 122         (A1)--V           2.165451          4.880602
 123         (B2)--V           2.168261          4.816668
 124         (B1)--V           2.198838          5.278577
 125         (B2)--V           2.221432          4.442766
 126         (A1)--V           2.238396          4.555517
 127         (A1)--V           2.250689          4.552285
 128         (B1)--V           2.257367          4.423362
 129         (B1)--V           2.264418          4.702370
 130         (B2)--V           2.298701          4.410727
 131         (A2)--V           2.322974          4.259246
 132         (B2)--V           2.399035          4.340648
 133         (A1)--V           2.404230          3.707852
 134         (B1)--V           2.413498          3.616837
 135         (A2)--V           2.420503          3.220307
 136         (B1)--V           2.429001          3.276110
 137         (A1)--V           2.429162          3.582292
 138         (A2)--V           2.430978          3.214534
 139         (A1)--V           2.435502          3.515401
 140         (B2)--V           2.459997          3.379568
 141         (B2)--V           2.469410          3.391056
 142         (B1)--V           2.481234          3.698602
 143         (A1)--V           2.519411          4.653564
 144         (B1)--V           2.532014          4.682447
 145         (B1)--V           2.584371          6.796860
 146         (A1)--V           2.591073          4.470621
 147         (A2)--V           2.591783          6.594650
 148         (B2)--V           2.623434          5.911741
 149         (A1)--V           2.624935          6.924227
 150         (B2)--V           2.642620          6.097339
 151         (B1)--V           2.666689          5.029496
 152         (A1)--V           2.678807          5.278320
 153         (A2)--V           2.756191          5.151720
 154         (B1)--V           2.773605          5.839745
 155         (A1)--V           2.793653          5.926932
 156         (A2)--V           2.801989          5.985975
 157         (B1)--V           2.847485          6.062420
 158         (A1)--V           2.855287          6.049454
 159         (B2)--V           2.860096          6.081148
 160         (B2)--V           2.904249          6.372280
 161         (A2)--V           2.921468          6.376287
 162         (A1)--V           3.029826          7.247545
 163         (A1)--V           3.162054          7.125390
 164         (B1)--V           3.186209          7.101853
 165         (B2)--V           3.353812          7.210899
 166         (A1)--V           3.359064          7.222718
 167         (B1)--V           3.398033          7.027931
 168         (A2)--V           3.407014          7.137207
 169         (A1)--V           3.434622          7.673543
 170         (B2)--V           3.491675          7.858618
 171         (A1)--V           4.403655          8.924878
 172         (B2)--V           4.827915          9.471120
 173         (B2)--V           4.923331          8.871423
 174         (B2)--V           5.055636         12.140261
 175         (A2)--V           5.085776         12.000697
 176         (B1)--V           5.150092         12.734401
 177         (A1)--V           5.206259         12.666921
 178         (B1)--V           5.368355         12.071385
 179         (A1)--V           5.376125         12.025245
 180         (A1)--V           5.461176          7.200297
 181         (B1)--V           5.481307          7.530073
 182         (A2)--V           5.485158          6.447331
 183         (B2)--V           5.487464          6.446927
 184         (B1)--V           5.500363          6.562020
 185         (B2)--V           5.509204          8.354007
 186         (A1)--V           5.509363          6.851843
 187         (A2)--V           5.511461          8.349109
 188         (B2)--V           5.587159          7.200764
 189         (A2)--V           5.601802          7.371621
 190         (A1)--V           5.630611          9.873508
 191         (A1)--V           5.741839          7.110101
 192         (B1)--V           5.751598          7.082650
 193         (B2)--V           5.839568         11.357412
 194         (A1)--V           6.524022         13.028538
 195         (A1)--V           6.613722         11.576070
 196         (B1)--V           6.627747         11.922501
 197         (B1)--V           6.634047         14.306361
 198         (A1)--V           6.675890         14.399890
 199         (A2)--V           6.684038         16.162200
 200         (B2)--V           6.694826         15.979844
 201         (B2)--V           6.760631          9.858283
 202         (A2)--V           6.761194         10.587991
 203         (A1)--V           6.770952         14.263048
 204         (B2)--V           6.773319         11.026198
 205         (B1)--V           6.787066         14.718759
 206         (A2)--V           6.826562         10.303538
 207         (A1)--V           6.904622         13.789646
 208         (B1)--V           6.915831         13.919560
 209         (B2)--V           7.029956         11.237919
 210         (A1)--V           7.126804          9.728587
 211         (B1)--V           7.137095          9.747656
 212         (A1)--V           7.344009         11.044963
 213         (B2)--V           7.581852         14.254241
 214         (A2)--V           7.615022         14.112317
 215         (A1)--V           7.668368         16.281742
 216         (B2)--V           8.040925         12.403386
 217         (A1)--V           8.623084         16.301015
 218         (B2)--V           8.637511         16.140353
 219         (A2)--V           8.667030         16.177057
 220         (B1)--V           8.766125         16.413550
 221         (A1)--V          10.174802         17.311108
 222         (B1)--V          11.509339         33.891734
 223         (A2)--V          11.520183         33.868564
 224         (A1)--V          11.522914         33.899272
 225         (B2)--V          11.537965         33.895074
 226         (B1)--V          11.729379         33.916813
 227         (A1)--V          11.765305         33.923569
 228         (A2)--V          14.088471         34.961850
 229         (B2)--V          14.098024         34.960539
 230         (A1)--V          14.112142         34.948015
 231         (B1)--V          14.112829         34.947944
 232         (A1)--V          14.152132         34.949488
 233         (B1)--V          14.174019         34.948884
 234         (B2)--V          14.481250         34.900197
 235         (A2)--V          14.483400         34.898551
 236         (A1)--V          14.965465         34.920620
 237         (A1)--V          22.026885         43.749446
 238         (B1)--V          22.094818         43.866603
 239         (B2)--V          22.317167         44.215879
 240         (A1)--V          25.882135         44.372897
 241         (B1)--V          25.943923         44.437843
 242         (A1)--V          32.253304        438.317550
 243         (A1)--V          45.189283        108.867468
 244         (B2)--V          45.430184        109.111928
 245         (A1)--V          48.515781         92.703121
 246         (B1)--V          48.576278         92.742503
 247         (B2)--V          48.772468         92.871478
 248         (A1)--V          59.827995         43.795014
 249         (A1)--V         122.741602        236.609973
 250         (B1)--V         122.825371        236.699696
 251         (B2)--V         123.075356        236.936686
 252         (A1)--V         229.547549        139.047392
 253         (A1)--V         674.099446       1053.810509
 Total kinetic energy from orbitals= 1.217264650098D+03
 Leave Link  601 at Thu Mar 24 17:19:24 2022, MaxMem=  1048576000 cpu:               3.6 elap:               1.0
 (Enter /home/pcmt/gaussian/g16.C.01/g16/l9999.exe)

 Test job not archived.
 1\1\GINC-U-0-12\SP\RMP2-RW\Gen\Cl2O2U1\ROOT\24-Mar-2022\0\\#p MP2(MaxD
 isk=500Gb, Window=(22,0))/GEN GFInput GFPrint 5D 7F IOP(6/7=3, 4/69=2,
  6/10=1) Pseudo=Read Symm=(Loose) Int=(UltraFine) Guess=(CheckPoint) S
 cf=(NoVarAcc,MaxCycle=100,conver=8) Geom=(CheckPoint,ModRedundant) Sym
 metry=Loose\\UO2Cl2 - linear - MP2 - GP\\0,1\U,0,0.,0.0866906808,0.\O,
 0,-1.728950101,0.0866917548,0.\O,0,1.728950101,0.0866917548,0.\Cl,0,0.
 ,-1.2360774784,-2.1377754735\Cl,0,0.,-1.2360774784,2.1377754735\\Versi
 on=ES64L-G16RevC.01\State=1-A1\HF=-1544.2458962\MP2=-1545.6377945\RMSD
 =6.950e-09\PG=C02V [C2(U1),SGV(O2),SGV'(Cl2)]\\@


 ERWIN WITH HIS PSI CAN DO
 CALCULATIONS QUITE A FEW.
 BUT ONE THING HAS NOT BEEN SEEN
 JUST WHAT DOES PSI REALLY MEAN.
 -- WALTER HUCKEL, TRANS. BY FELIX BLOCH
 Job cpu time:       0 days  0 hours 29 minutes 49.1 seconds.
 Elapsed time:       0 days  0 hours  5 minutes 35.0 seconds.
 File lengths (MBytes):  RWF=     29 Int=      0 D2E=      0 Chk=      6 Scr=      1
 Normal termination of Gaussian 16 at Thu Mar 24 17:19:26 2022.
