

 Parallel Execution: Process Information
 ==============================================================================
 Rank   Node Name                              NodeID   MyNodeRank  NodeMaster
    0   u-0-4.local                               0          0          0
    1   u-0-4.local                               0          1         -1
    2   u-0-4.local                               1          0          1
    3   u-0-4.local                               1          1         -1
    4   u-0-4.local                               2          0          2
    5   u-0-4.local                               2          1         -1
    6   u-0-4.local                               3          0          3
    7   u-0-4.local                               3          1         -1
 ==============================================================================


May use up to 31228MB of RAM as shared memory on node 0
May use up to 31250MB of RAM as shared memory on node 1
May use up to 31250MB of RAM as shared memory on node 3
May use up to 31250MB of RAM as shared memory on node 2

 *******************************************************************************
 *                                                                             *
 *  --------------------------------                                           *
 *   Amsterdam Modeling Suite (AMS)              2021.106                      *
 *  --------------------------------                                           *
 *                                               r99350 2021-12-03             *
 *                                                                             *
 *                                                                             *
 *                              =================                              *
 *                              |               |                              *
 *                              |     A M S     |                              *
 *                              |               |                              *
 *                              =================                              *
 *                                                                             *
 *                                                                             *
 *   Online information and documentation:  https://www.scm.com/support/       *
 *   E-mail:  support@scm.com   info@scm.com                                   *
 *                                                                             *
 *   Scientific publications using AMS results must be properly referenced     *
 *   See the User Manuals (or the web site) for recommended citations          *
 *   The terms and conditions of the End User License Agreement apply to       *
 *   the use of AMS, https://www.scm.com/license-terms/                        *
 *                                                                             *
 **********************  x86_64_linux_intel / intelmpi  ************************
 
 Licensed to: Dr. Val?rie Vallet / Laboratoire PhLAM UMR 8523 / Villeneuve d'Ascq Cedex / FRANCE 2023-01-20 17:43:01
 SCM User ID: u10325
  
 AMS 2021.106  RunTime: Jan25-2023 12:18:09  ShM Nodes: 4  Procs: 8

 AMS jobname: uo2.tddft-camb3lyp.SO
 AMS jobid  : 1204371914

 Start   directory: /home/vallet/Bent-Uranyl/uo2/adf/geom-pbe0-d3-gp-linear/ams/fullkernel/
 Results directory: /home/vallet/Bent-Uranyl/uo2/adf/geom-pbe0-d3-gp-linear/ams/fullkernel/uo2.tddft-camb3lyp.SO.results/
 Scratch directory: /state/partition2/vallet/923096.phlam-s-sakura/amstmp_uo2.tddft-camb3lyp.SO_kid0.1204371914/


 Communication costs MPI_COMM_WORLD:      2.718 usec per message,   0.0087 usec per 8-byte item
 Communication costs for intra-node:      0.505 usec per message,   0.0024 usec per 8-byte item

 RNG seed: 185311907 1961370372 -2009661140 -823828032 40001387 1867509385 402028555 -2061818357



                      ************************************************************************
                      *  ADF 2021.106  RunTime: Jan25-2023 12:18:10  ShM Nodes: 4  Procs: 8  *
                      ************************************************************************
  
       ****************************
       * SINGLE POINT CALCULATION *
       ****************************
 
--------
Geometry
--------
Formula: O2U
Atoms
  Index Symbol   x (angstrom)   y (angstrom)   z (angstrom)
      1      U     0.00000000     0.00000000    -0.03437800
      2      O     1.74322000     0.00000000    -0.03437400
      3      O    -1.74322000     0.00000000    -0.03437400
 
Total System Charge             2.00000
Bonding info available!
 
 
----------------
ADF Engine Input
----------------
 
 Basis
 Type TZ2P
 Core None
 End
 XC
 libxc CAM-B3LYP
 End
 Relativity
 Level Spin-Orbit
 End
 Symmetry NOSYM
 Excitations
 Lowest 16
 NTO Yes
 Davidson
 End
 FullKernel Yes
 End
 

 Title: *** (NO TITLE) ***

 *** adf ***



 ===========================
 A T T A C H E D   F I L E S
 ===========================
  



 ===============================
 M O D E L   P A R A M E T E R S
 ===============================
  
 Range separated functional parameters:
 RANGESEP OMEGA=    0.330000 ALPHA=    0.190000 BETA=    0.460000 ERF-LONGRANGE 
                                                                                
   
 DENSITY FUNCTIONAL POTENTIAL (scf)

   *** Range Separated Functional ***

 Regions:
   LibXC version: 5. 1. 2
   Exchange-correlation  T T T T F F F T T F F F F F F F F F F F F
   HF parameter =   0.65000000
   LIBXC GAMMA=    0.330000 ALPHA=    0.650000 BETA=   -0.460000
   CAM version of B3LYP (Hybrid GGA)
[1] T. Yanai, D. P. Tew, and N. C. Handy, Chem. Phys. Lett. 393, 51 (2004)

 SPIN  (restricted / unrestr.)
    Molecule:                          Restricted                               
    Fragments:                         Restricted                               

 OTHER ASPECTS
    Relativistic Corrections:          Spin-Orbit (ZORA,MAPA)                  == Not Default ==

    Nuclear Charge Density Model:      Point Charge Nuclei                      
    Core Treatment:                    Frozen Orbital(s)                        

    Hyperfine or Zeeman Interaction:   ---                                      


 Fragment File(s)
 ----------------
 U:
         file : /home/vallet/Bent-Uranyl/uo2/adf/geom-pbe0-d3-gp-linear/ams/fullkernel/uo2.tddft-camb3lyp.SO.results/t21.6C1485AF.U
         jobid: 0
         title: Uranium (TZ2P, all electron)
 O:
         file : /home/vallet/Bent-Uranyl/uo2/adf/geom-pbe0-d3-gp-linear/ams/fullkernel/uo2.tddft-camb3lyp.SO.results/t21.1786ABF1.O
         jobid: 0
         title: Oxygen (TZ2P)



 ===============
 G E O M E T R Y  ***  Planar Molecule  ***
 ===============
  

 ATOMS
 =====                            X Y Z                    CHARGE
                                (Angstrom)             Nucl     +Core       At.Mass
                       --------------------------    ----------------       -------
    1  U               0.0000    0.0000   -0.0344     92.00     92.00      238.0508
    2  O               1.7432    0.0000   -0.0344      8.00      8.00       15.9949
    3  O              -1.7432    0.0000   -0.0344      8.00      8.00       15.9949


 FRAGMENTS
 =========                                     Atoms in this Fragment     Cart. coord.s (Angstrom)
                                               -------------------------------------------------------
    1  U                                                 1  U            0.0000    0.0000   -0.0344
    2  O                                                 2  O            1.7432    0.0000   -0.0344
    3  O                                                 3  O           -1.7432    0.0000   -0.0344


 Interatomic Distance Matrix (Angstrom)
 --------------------------------------

   1)     0.000
   2)     1.743   0.000
   3)     1.743   3.486   0.000

 Min. Distance =    1.7432
 Max. Distance =    3.4864



 =====================================
 S Y M M E T R Y ,   E L E C T R O N S
 =====================================
  
 Symmetry: NOSYM

 Double Group Irreducible Representations (spinor symmetry)
 -----------------------------------------------------------
 A1/2

 Symmetry is NOT used when fitting density


 Configuration of Valence Electrons
 ==================================
 ( determined in the SCF procedure )

 Total:   106

 Net Charge: 2 (Nuclei minus Electrons)

 Aufbau principle for MO occupations will be applied through SCF cycle no.     150
 Thereafter, the program will assign electrons to MOs that are spatially
 similar to the occupied MOs in a "reference" cycle ("KeepOrbitals").
 The reference cycle is always the PREVIOUS cycle: it will evolve with
 the SCF procedure.
1
 ***************************************************************************************************



                                      ****************************************
                                      *  B U I L D : (Fragments, Functions)  *
                                      ****************************************
  



 =======
 S F O s  ***  (Symmetrized Fragment Orbitals)  ***
 =======
  
 SFOs are linear combinations of (valence) Fragment Orbitals (FOs), such that the SFOs transform as the
 irreducible representations of the (molecular) symmetry group. Each SFO is therefore characterized by
 an irrep of the molecule and by a few (or only one) generating FOs.
 The SFOs constitute a symmetry-adapted basis for the Fock matrix. The MO eigenvector coefficients in
 this basis provide a direct interpretation of the MOs in terms of Frontier Orbital Theory.

 The SFOs are combined with auxiliary Core Functions (CFs) to ensure orthogonalization on the (frozen)
 Core Orbitals (COs). The Core-orthogonalized SFOs (CSFOs) constitute the true Fock basis.

 The FOs, and hence also the (C)SFOs are combinations of the elementary basis functions (BAS). The basis
 functions that participate in the description of the SFOs depend on the irrep. The indices of the
 involved functions are printed below for each irrep.
 (The complete list of primitive basis functions is printed in another section)

 Total nr. of (C)SFOs (summation over all irreps) :   187

 NOTE: a (C)SFO that is defined as a combination of more than one FO is usually NOT normalized.

 NOTE: the (C)SFOs are single group symmetry adapted orbitals.



                                       === A ===
 Nr. of SFOs :  187
 Cartesian basis functions that participate in this irrep (total number =   219) :
      1     2     3     4     5     6     7     8     9    10
     11    12    13    14    15    16    17    20    23    26
     29    32    35    38    41    44    47    50   157    18
     21    24    27    30    33    36    39    42    45    48
     51   158    19    22    25    28    31    34    37    40
     43    46    49    52   159    53    59    65    71    77
     83    89    95   101    54    60    66    72    78    84
     90    96   102    55    61    67    73    79    85    91
     97   103    56    62    68    74    80    86    92    98
    104    57    63    69    75    81    87    93    99   105
     58    64    70    76    82    88    94   100   106   107
    117   127   137   147   108   118   128   138   148   109
    119   129   139   149   110   120   130   140   150   111
    121   131   141   151   112   122   132   142   152   113
    123   133   143   153   114   124   134   144   154   115
    125   135   145   155   116   126   136   146   156   160
    161   162   163   164   165   168   171   166   169   172
    167   170   173   174   175   176   177   178   179   180
    181   182   183   184   185   186   187   188   189   190
    191   192   193   194   195   198   201   196   199   202
    197   200   203   204   205   206   207   208   209   210
    211   212   213   214   215   216   217   218   219

    SFO  (index         Fragment          Generating    Expansion in Fragment Orbitals
  indx  incl.CFs)   Occup   Orb.Energy   FragmentType  Coeff.   Orbital     on Fragment
 --------------------------------------------------------------------------------------
     1       1      2.000   -4251.353 au  U             1.00      1 S               1
                        ( -115685.196 eV)
     2       2      2.000    -796.441 au  U             1.00      2 S               1
                        (  -21672.268 eV)
     3       3      2.000    -201.892 au  U             1.00      3 S               1
                        (   -5493.749 eV)
     4       4      2.000     -51.876 au  U             1.00      4 S               1
                        (   -1411.630 eV)
     5       5      2.000     -11.729 au  U             1.00      5 S               1
                        (    -319.169 eV)
     6       6      2.000      -1.945 au  U             1.00      6 S               1
                        (     -52.927 eV)
     7       7      2.000      -0.213 au  U             1.00      7 S               1
                        (      -5.803 eV)
     8       8       --         0.048 au  U             1.00      8 S               1
                        (       1.304 eV)
     9       9       --         0.365 au  U             1.00      9 S               1
                        (       9.926 eV)
    10      10       --         1.710 au  U             1.00     10 S               1
                        (      46.524 eV)
    11      11       --         8.839 au  U             1.00     11 S               1
                        (     240.518 eV)
    12      12       --        47.595 au  U             1.00     12 S               1
                        (    1295.126 eV)
    13      13       --      1081.390 au  U             1.00     13 S               1
                        (   29426.119 eV)
    14      14       --      5574.427 au  U             1.00     14 S               1
                        (  151687.880 eV)
    15      15       --     16665.542 au  U             1.00     15 S               1
                        (  453492.485 eV)
    16      16       --     47306.872 au  U             1.00     16 S               1
                        ( 1287285.481 eV)
    17      17      2.000    -662.462 au  U             1.00      1 P:x             1
                        (  -18026.515 eV)
    18      18      2.000    -164.599 au  U             1.00      2 P:x             1
                        (   -4478.961 eV)
    19      19      2.000     -39.673 au  U             1.00      3 P:x             1
                        (   -1079.554 eV)
    20      20      2.000      -7.932 au  U             1.00      4 P:x             1
                        (    -215.835 eV)
    21      21      2.000      -0.994 au  U             1.00      5 P:x             1
                        (     -27.045 eV)
    22      22       --         0.020 au  U             1.00      6 P:x             1
                        (       0.556 eV)
    23      23       --         0.440 au  U             1.00      7 P:x             1
                        (      11.979 eV)
    24      24       --         1.884 au  U             1.00      8 P:x             1
                        (      51.264 eV)
    25      25       --         7.651 au  U             1.00      9 P:x             1
                        (     208.183 eV)
    26      26       --        36.626 au  U             1.00     10 P:x             1
                        (     996.655 eV)
    27      27       --       183.078 au  U             1.00     11 P:x             1
                        (    4981.805 eV)
    28      28       --      1551.559 au  U             1.00     12 P:x             1
                        (   42220.063 eV)
    29      29       --     11017.681 au  U             1.00     13 P:x             1
                        (  299806.354 eV)
    30      30      2.000    -662.462 au  U             1.00      1 P:y             1
                        (  -18026.515 eV)
    31      31      2.000    -164.599 au  U             1.00      2 P:y             1
                        (   -4478.961 eV)
    32      32      2.000     -39.673 au  U             1.00      3 P:y             1
                        (   -1079.554 eV)
    33      33      2.000      -7.932 au  U             1.00      4 P:y             1
                        (    -215.835 eV)
    34      34      2.000      -0.994 au  U             1.00      5 P:y             1
                        (     -27.045 eV)
    35      35       --         0.020 au  U             1.00      6 P:y             1
                        (       0.556 eV)
    36      36       --         0.440 au  U             1.00      7 P:y             1
                        (      11.979 eV)
    37      37       --         1.884 au  U             1.00      8 P:y             1
                        (      51.264 eV)
    38      38       --         7.651 au  U             1.00      9 P:y             1
                        (     208.183 eV)
    39      39       --        36.626 au  U             1.00     10 P:y             1
                        (     996.655 eV)
    40      40       --       183.078 au  U             1.00     11 P:y             1
                        (    4981.805 eV)
    41      41       --      1551.559 au  U             1.00     12 P:y             1
                        (   42220.063 eV)
    42      42       --     11017.681 au  U             1.00     13 P:y             1
                        (  299806.354 eV)
    43      43      2.000    -662.462 au  U             1.00      1 P:z             1
                        (  -18026.515 eV)
    44      44      2.000    -164.599 au  U             1.00      2 P:z             1
                        (   -4478.961 eV)
    45      45      2.000     -39.673 au  U             1.00      3 P:z             1
                        (   -1079.554 eV)
    46      46      2.000      -7.932 au  U             1.00      4 P:z             1
                        (    -215.835 eV)
    47      47      2.000      -0.994 au  U             1.00      5 P:z             1
                        (     -27.045 eV)
    48      48       --         0.020 au  U             1.00      6 P:z             1
                        (       0.556 eV)
    49      49       --         0.440 au  U             1.00      7 P:z             1
                        (      11.979 eV)
    50      50       --         1.884 au  U             1.00      8 P:z             1
                        (      51.264 eV)
    51      51       --         7.651 au  U             1.00      9 P:z             1
                        (     208.183 eV)
    52      52       --        36.626 au  U             1.00     10 P:z             1
                        (     996.655 eV)
    53      53       --       183.078 au  U             1.00     11 P:z             1
                        (    4981.805 eV)
    54      54       --      1551.559 au  U             1.00     12 P:z             1
                        (   42220.063 eV)
    55      55       --     11017.681 au  U             1.00     13 P:z             1
                        (  299806.354 eV)
    56      56      2.000    -132.007 au  U             1.00      1 D:z2            1
                        (   -3592.098 eV)
    57      57      2.000     -27.274 au  U             1.00      2 D:z2            1
                        (    -742.171 eV)
    58      58      2.000      -3.863 au  U             1.00      3 D:z2            1
                        (    -105.123 eV)
    59      59      0.200      -0.032 au  U             1.00      4 D:z2            1
                        (      -0.878 eV)
    60      60       --         0.088 au  U             1.00      5 D:z2            1
                        (       2.389 eV)
    61      61       --         0.510 au  U             1.00      6 D:z2            1
                        (      13.866 eV)
    62      62       --         3.364 au  U             1.00      7 D:z2            1
                        (      91.549 eV)
    63      63       --        24.287 au  U             1.00      8 D:z2            1
                        (     660.870 eV)
    64      64       --       197.255 au  U             1.00      9 D:z2            1
                        (    5367.594 eV)
    65      65      2.000    -132.007 au  U             1.00      1 D:x2-y2         1
                        (   -3592.098 eV)
    66      66      2.000     -27.274 au  U             1.00      2 D:x2-y2         1
                        (    -742.171 eV)
    67      67      2.000      -3.863 au  U             1.00      3 D:x2-y2         1
                        (    -105.123 eV)
    68      68      0.200      -0.032 au  U             1.00      4 D:x2-y2         1
                        (      -0.878 eV)
    69      69       --         0.088 au  U             1.00      5 D:x2-y2         1
                        (       2.389 eV)
    70      70       --         0.510 au  U             1.00      6 D:x2-y2         1
                        (      13.866 eV)
    71      71       --         3.364 au  U             1.00      7 D:x2-y2         1
                        (      91.549 eV)
    72      72       --        24.287 au  U             1.00      8 D:x2-y2         1
                        (     660.870 eV)
    73      73       --       197.255 au  U             1.00      9 D:x2-y2         1
                        (    5367.594 eV)
    74      74      2.000    -132.007 au  U             1.00      1 D:xy            1
                        (   -3592.098 eV)
    75      75      2.000     -27.274 au  U             1.00      2 D:xy            1
                        (    -742.171 eV)
    76      76      2.000      -3.863 au  U             1.00      3 D:xy            1
                        (    -105.123 eV)
    77      77      0.200      -0.032 au  U             1.00      4 D:xy            1
                        (      -0.878 eV)
    78      78       --         0.088 au  U             1.00      5 D:xy            1
                        (       2.389 eV)
    79      79       --         0.510 au  U             1.00      6 D:xy            1
                        (      13.866 eV)
    80      80       --         3.364 au  U             1.00      7 D:xy            1
                        (      91.549 eV)
    81      81       --        24.287 au  U             1.00      8 D:xy            1
                        (     660.870 eV)
    82      82       --       197.255 au  U             1.00      9 D:xy            1
                        (    5367.594 eV)
    83      83      2.000    -132.007 au  U             1.00      1 D:xz            1
                        (   -3592.098 eV)
    84      84      2.000     -27.274 au  U             1.00      2 D:xz            1
                        (    -742.171 eV)
    85      85      2.000      -3.863 au  U             1.00      3 D:xz            1
                        (    -105.123 eV)
    86      86      0.200      -0.032 au  U             1.00      4 D:xz            1
                        (      -0.878 eV)
    87      87       --         0.088 au  U             1.00      5 D:xz            1
                        (       2.389 eV)
    88      88       --         0.510 au  U             1.00      6 D:xz            1
                        (      13.866 eV)
    89      89       --         3.364 au  U             1.00      7 D:xz            1
                        (      91.549 eV)
    90      90       --        24.287 au  U             1.00      8 D:xz            1
                        (     660.870 eV)
    91      91       --       197.255 au  U             1.00      9 D:xz            1
                        (    5367.594 eV)
    92      92      2.000    -132.007 au  U             1.00      1 D:yz            1
                        (   -3592.098 eV)
    93      93      2.000     -27.274 au  U             1.00      2 D:yz            1
                        (    -742.171 eV)
    94      94      2.000      -3.863 au  U             1.00      3 D:yz            1
                        (    -105.123 eV)
    95      95      0.200      -0.032 au  U             1.00      4 D:yz            1
                        (      -0.878 eV)
    96      96       --         0.088 au  U             1.00      5 D:yz            1
                        (       2.389 eV)
    97      97       --         0.510 au  U             1.00      6 D:yz            1
                        (      13.866 eV)
    98      98       --         3.364 au  U             1.00      7 D:yz            1
                        (      91.549 eV)
    99      99       --        24.287 au  U             1.00      8 D:yz            1
                        (     660.870 eV)
   100     100       --       197.255 au  U             1.00      9 D:yz            1
                        (    5367.594 eV)
   101     101      2.000     -14.070 au  U             1.00      1 F:z3            1
                        (    -382.852 eV)
   102     102      0.429      -0.056 au  U             1.00      2 F:z3            1
                        (      -1.528 eV)
   103     103       --         0.379 au  U             1.00      3 F:z3            1
                        (      10.321 eV)
   104     104       --         2.236 au  U             1.00      4 F:z3            1
                        (      60.848 eV)
   105     105       --        21.518 au  U             1.00      5 F:z3            1
                        (     585.544 eV)
   106     106      2.000     -14.070 au  U             1.00      1 F:z             1
                        (    -382.852 eV)
   107     107      0.429      -0.056 au  U             1.00      2 F:z             1
                        (      -1.528 eV)
   108     108       --         0.379 au  U             1.00      3 F:z             1
                        (      10.321 eV)
   109     109       --         2.236 au  U             1.00      4 F:z             1
                        (      60.848 eV)
   110     110       --        21.518 au  U             1.00      5 F:z             1
                        (     585.544 eV)
   111     111      2.000     -14.070 au  U             1.00      1 F:xyz           1
                        (    -382.852 eV)
   112     112      0.429      -0.056 au  U             1.00      2 F:xyz           1
                        (      -1.528 eV)
   113     113       --         0.379 au  U             1.00      3 F:xyz           1
                        (      10.321 eV)
   114     114       --         2.236 au  U             1.00      4 F:xyz           1
                        (      60.848 eV)
   115     115       --        21.518 au  U             1.00      5 F:xyz           1
                        (     585.544 eV)
   116     116      2.000     -14.070 au  U             1.00      1 F:z2x           1
                        (    -382.852 eV)
   117     117      0.429      -0.056 au  U             1.00      2 F:z2x           1
                        (      -1.528 eV)
   118     118       --         0.379 au  U             1.00      3 F:z2x           1
                        (      10.321 eV)
   119     119       --         2.236 au  U             1.00      4 F:z2x           1
                        (      60.848 eV)
   120     120       --        21.518 au  U             1.00      5 F:z2x           1
                        (     585.544 eV)
   121     121      2.000     -14.070 au  U             1.00      1 F:z2y           1
                        (    -382.852 eV)
   122     122      0.429      -0.056 au  U             1.00      2 F:z2y           1
                        (      -1.528 eV)
   123     123       --         0.379 au  U             1.00      3 F:z2y           1
                        (      10.321 eV)
   124     124       --         2.236 au  U             1.00      4 F:z2y           1
                        (      60.848 eV)
   125     125       --        21.518 au  U             1.00      5 F:z2y           1
                        (     585.544 eV)
   126     126      2.000     -14.070 au  U             1.00      1 F:x             1
                        (    -382.852 eV)
   127     127      0.429      -0.056 au  U             1.00      2 F:x             1
                        (      -1.528 eV)
   128     128       --         0.379 au  U             1.00      3 F:x             1
                        (      10.321 eV)
   129     129       --         2.236 au  U             1.00      4 F:x             1
                        (      60.848 eV)
   130     130       --        21.518 au  U             1.00      5 F:x             1
                        (     585.544 eV)
   131     131      2.000     -14.070 au  U             1.00      1 F:y             1
                        (    -382.852 eV)
   132     132      0.429      -0.056 au  U             1.00      2 F:y             1
                        (      -1.528 eV)
   133     133       --         0.379 au  U             1.00      3 F:y             1
                        (      10.321 eV)
   134     134       --         2.236 au  U             1.00      4 F:y             1
                        (      60.848 eV)
   135     135       --        21.518 au  U             1.00      5 F:y             1
                        (     585.544 eV)
   136     136      2.000     -19.398 au  O             1.00      1 S               2
                        (    -527.846 eV)
   137     137      2.000      -1.055 au  O             1.00      2 S               2
                        (     -28.706 eV)
   138     138       --         0.898 au  O             1.00      3 S               2
                        (      24.442 eV)
   139     139       --        13.659 au  O             1.00      4 S               2
                        (     371.685 eV)
   140     140       --       122.205 au  O             1.00      5 S               2
                        (    3325.373 eV)
   141     141      1.333      -0.391 au  O             1.00      1 P:x             2
                        (     -10.628 eV)
   142     142       --         0.430 au  O             1.00      2 P:x             2
                        (      11.691 eV)
   143     143       --         3.994 au  O             1.00      3 P:x             2
                        (     108.695 eV)
   144     144      1.333      -0.391 au  O             1.00      1 P:y             2
                        (     -10.628 eV)
   145     145       --         0.430 au  O             1.00      2 P:y             2
                        (      11.691 eV)
   146     146       --         3.994 au  O             1.00      3 P:y             2
                        (     108.695 eV)
   147     147      1.333      -0.391 au  O             1.00      1 P:z             2
                        (     -10.628 eV)
   148     148       --         0.430 au  O             1.00      2 P:z             2
                        (      11.691 eV)
   149     149       --         3.994 au  O             1.00      3 P:z             2
                        (     108.695 eV)
   150     150       --         1.180 au  O             1.00      1 D:z2            2
                        (      32.112 eV)
   151     151       --         1.180 au  O             1.00      1 D:x2-y2         2
                        (      32.112 eV)
   152     152       --         1.180 au  O             1.00      1 D:xy            2
                        (      32.112 eV)
   153     153       --         1.180 au  O             1.00      1 D:xz            2
                        (      32.112 eV)
   154     154       --         1.180 au  O             1.00      1 D:yz            2
                        (      32.112 eV)
   155     155       --         3.501 au  O             1.00      1 F:z3            2
                        (      95.277 eV)
   156     156       --         3.501 au  O             1.00      1 F:z             2
                        (      95.277 eV)
   157     157       --         3.501 au  O             1.00      1 F:xyz           2
                        (      95.277 eV)
   158     158       --         3.501 au  O             1.00      1 F:z2x           2
                        (      95.277 eV)
   159     159       --         3.501 au  O             1.00      1 F:z2y           2
                        (      95.277 eV)
   160     160       --         3.501 au  O             1.00      1 F:x             2
                        (      95.277 eV)
   161     161       --         3.501 au  O             1.00      1 F:y             2
                        (      95.277 eV)
   162     162      2.000     -19.398 au  O             1.00      1 S               3
                        (    -527.846 eV)
   163     163      2.000      -1.055 au  O             1.00      2 S               3
                        (     -28.706 eV)
   164     164       --         0.898 au  O             1.00      3 S               3
                        (      24.442 eV)
   165     165       --        13.659 au  O             1.00      4 S               3
                        (     371.685 eV)
   166     166       --       122.205 au  O             1.00      5 S               3
                        (    3325.373 eV)
   167     167      1.333      -0.391 au  O             1.00      1 P:x             3
                        (     -10.628 eV)
   168     168       --         0.430 au  O             1.00      2 P:x             3
                        (      11.691 eV)
   169     169       --         3.994 au  O             1.00      3 P:x             3
                        (     108.695 eV)
   170     170      1.333      -0.391 au  O             1.00      1 P:y             3
                        (     -10.628 eV)
   171     171       --         0.430 au  O             1.00      2 P:y             3
                        (      11.691 eV)
   172     172       --         3.994 au  O             1.00      3 P:y             3
                        (     108.695 eV)
   173     173      1.333      -0.391 au  O             1.00      1 P:z             3
                        (     -10.628 eV)
   174     174       --         0.430 au  O             1.00      2 P:z             3
                        (      11.691 eV)
   175     175       --         3.994 au  O             1.00      3 P:z             3
                        (     108.695 eV)
   176     176       --         1.180 au  O             1.00      1 D:z2            3
                        (      32.112 eV)
   177     177       --         1.180 au  O             1.00      1 D:x2-y2         3
                        (      32.112 eV)
   178     178       --         1.180 au  O             1.00      1 D:xy            3
                        (      32.112 eV)
   179     179       --         1.180 au  O             1.00      1 D:xz            3
                        (      32.112 eV)
   180     180       --         1.180 au  O             1.00      1 D:yz            3
                        (      32.112 eV)
   181     181       --         3.501 au  O             1.00      1 F:z3            3
                        (      95.277 eV)
   182     182       --         3.501 au  O             1.00      1 F:z             3
                        (      95.277 eV)
   183     183       --         3.501 au  O             1.00      1 F:xyz           3
                        (      95.277 eV)
   184     184       --         3.501 au  O             1.00      1 F:z2x           3
                        (      95.277 eV)
   185     185       --         3.501 au  O             1.00      1 F:z2y           3
                        (      95.277 eV)
   186     186       --         3.501 au  O             1.00      1 F:x             3
                        (      95.277 eV)
   187     187       --         3.501 au  O             1.00      1 F:y             3
                        (      95.277 eV)



 ================================
 (Slater-type)  F U N C T I O N S  ***  (Basis and Fit)  ***
 ================================
  

 Atom Type    1  (U)
 ==============

 Valence Basis Sets:  43
 -----------------------
   1 S 1060.000000
   1 S  245.000000
   1 S  108.800000
   2 S  134.900000
   2 S   47.200000
   3 S   60.000000
   3 S   25.900000
   4 S   15.800000
   4 S   11.100000
   5 S   10.450000
   5 S    7.250000
   6 S    5.000000
   6 S    3.300000
   7 S    2.350000
   7 S    1.550000
   7 S    1.020000
   2 P  245.000000
   2 P   85.500000
   2 P   44.200000
   3 P   25.100000
   3 P   18.100000
   4 P   17.900000
   4 P   12.300000
   5 P    8.650000
   5 P    6.000000
   6 P    4.450000
   6 P    3.000000
   6 P    2.100000
   3 D   33.250000
   3 D   22.050000
   4 D   15.250000
   4 D   10.550000
   5 D    7.250000
   5 D    4.650000
   6 D    2.900000
   6 D    1.600000
   6 D    0.880000
   4 F   17.450000
   4 F    9.600000
   5 F    5.800000
   5 F    3.000000
   5 F    1.390000
   7 P    1.550000

 Charge Fitting Sets (for the computation of the Coulomb Potential):  87
 -----------------------------------------------------------------------
   1 S 2120.000000
   1 S 1594.965000
   1 S 1199.960000
   1 S  902.780000
   1 S  679.200000
   1 S  510.990000
   1 S  384.440000
   1 S  289.230000
   1 S  217.600000
   1 S  129.260000
   2 S  142.240000
   2 S   95.100000
   3 S   93.370000
   3 S   66.470000
   4 S   62.580000
   4 S   46.380000
   5 S   42.820000
   5 S   32.660000
   6 S   29.850000
   6 S   23.270000
   7 S   21.150000
   7 S   16.770000
   8 S   15.210000
   8 S   12.230000
   9 S   11.070000
   9 S    9.010000
  10 S    8.150000
  10 S    6.700000
  11 S    6.070000
  11 S    5.030000
  12 S    4.550000
  12 S    3.810000
  12 S    3.180000
  13 S    2.880000
  13 S    2.420000
  13 S    2.040000
   2 P  153.000000
   3 P  127.690000
   4 P  104.620000
   5 P   85.360000
   6 P   69.720000
   7 P   57.130000
   7 P   40.980000
   8 P   33.710000
   8 P   24.670000
   9 P   20.380000
   9 P   15.180000
  10 P   12.590000
  10 P    9.510000
  11 P    7.920000
  11 P    6.060000
  12 P    5.070000
  12 P    3.920000
  13 P    3.290000
  13 P    2.570000
   3 D  130.850000
   4 D   91.890000
   5 D   65.340000
   6 D   47.080000
   7 D   34.350000
   8 D   25.360000
   9 D   18.910000
   9 D   12.740000
  10 D    9.600000
  10 D    6.590000
  11 D    5.010000
  11 D    3.500000
  12 D    2.680000
  12 D    1.900000
   4 F  118.400000
   5 F   72.780000
   6 F   45.920000
   7 F   29.630000
   8 F   19.500000
   9 F   13.050000
  10 F    8.870000
  10 F    5.510000
  11 F    3.800000
  11 F    2.410000
   5 G   53.800000
   6 G   31.220000
   7 G   18.640000
   8 G   11.410000
   9 G    7.140000
  10 G    4.550000
  11 G    2.950000
  11 G    1.760000

 Atom Type    2  (O)
 ==============

 Valence Basis Sets:  10
 -----------------------
   1 S    9.800000
   1 S    6.800000
   2 S    7.580000
   2 S    2.880000
   2 S    1.720000
   2 P    4.080000
   2 P    2.080000
   2 P    1.120000
   3 D    2.000000
   4 F    3.000000

 Charge Fitting Sets (for the computation of the Coulomb Potential):  22
 -----------------------------------------------------------------------
   1 S   19.600000
   2 S   22.600000
   2 S   15.680000
   2 S   10.890000
   2 S    7.560000
   3 S    7.690000
   3 S    5.650000
   3 S    4.150000
   3 S    3.050000
   3 S    2.240000
   2 P   12.860000
   2 P    7.680000
   3 P    6.780000
   3 P    4.390000
   3 P    2.840000
   3 D    8.800000
   3 D    5.580000
   3 D    3.530000
   3 D    2.240000
   4 F    6.200000
   4 F    3.700000
   5 G    4.500000


 BAS: List of all Elementary Cartesian Basis Functions
 =====================================================

 The numbering in the list below (to the right of the function characteristics) is referred
 to in print-outs of MO eigenvectors and Mulliken populations in the BAS representation
 (as contrasted to the SFO representation).

 Notes:
 1. The functions are characterized by a polynomial prefactor (powers of x,y,z and r) and
    an exponential decay factor alpha.
 2. Since the basis sets are specific for an atom TYPE, the individual functions occur on
    all atoms of that type.
 3. The word 'Core' in the left margin signals that it is a Core Function (CF) : not a
    degree of freedom in the valence set, but only used to ensure orthogonalization of
    the other valence basis functions on the frozen Core Orbitals.


 (power of) X  Y  Z  R     Alpha  on Atom
            ==========     =====     ==========

 U                                    1
                                  ---------------------------------------------------------------------------
            0  0  0  0  1060.000      1
            0  0  0  0   245.000      2
            0  0  0  0   108.800      3
            0  0  0  1   134.900      4
            0  0  0  1    47.200      5
            0  0  0  2    60.000      6
            0  0  0  2    25.900      7
            0  0  0  3    15.800      8
            0  0  0  3    11.100      9
            0  0  0  4    10.450     10
            0  0  0  4     7.250     11
            0  0  0  5     5.000     12
            0  0  0  5     3.300     13
            0  0  0  6     2.350     14
            0  0  0  6     1.550     15
            0  0  0  6     1.020     16
            1  0  0  0   245.000     17
            0  1  0  0   245.000     18
            0  0  1  0   245.000     19
            1  0  0  0    85.500     20
            0  1  0  0    85.500     21
            0  0  1  0    85.500     22
            1  0  0  0    44.200     23
            0  1  0  0    44.200     24
            0  0  1  0    44.200     25
            1  0  0  1    25.100     26
            0  1  0  1    25.100     27
            0  0  1  1    25.100     28
            1  0  0  1    18.100     29
            0  1  0  1    18.100     30
            0  0  1  1    18.100     31
            1  0  0  2    17.900     32
            0  1  0  2    17.900     33
            0  0  1  2    17.900     34
            1  0  0  2    12.300     35
            0  1  0  2    12.300     36
            0  0  1  2    12.300     37
            1  0  0  3     8.650     38
            0  1  0  3     8.650     39
            0  0  1  3     8.650     40
            1  0  0  3     6.000     41
            0  1  0  3     6.000     42
            0  0  1  3     6.000     43
            1  0  0  4     4.450     44
            0  1  0  4     4.450     45
            0  0  1  4     4.450     46
            1  0  0  4     3.000     47
            0  1  0  4     3.000     48
            0  0  1  4     3.000     49
            1  0  0  4     2.100     50
            0  1  0  4     2.100     51
            0  0  1  4     2.100     52
            2  0  0  0    33.250     53
            1  1  0  0    33.250     54
            1  0  1  0    33.250     55
            0  2  0  0    33.250     56
            0  1  1  0    33.250     57
            0  0  2  0    33.250     58
            2  0  0  0    22.050     59
            1  1  0  0    22.050     60
            1  0  1  0    22.050     61
            0  2  0  0    22.050     62
            0  1  1  0    22.050     63
            0  0  2  0    22.050     64
            2  0  0  1    15.250     65
            1  1  0  1    15.250     66
            1  0  1  1    15.250     67
            0  2  0  1    15.250     68
            0  1  1  1    15.250     69
            0  0  2  1    15.250     70
            2  0  0  1    10.550     71
            1  1  0  1    10.550     72
            1  0  1  1    10.550     73
            0  2  0  1    10.550     74
            0  1  1  1    10.550     75
            0  0  2  1    10.550     76
            2  0  0  2     7.250     77
            1  1  0  2     7.250     78
            1  0  1  2     7.250     79
            0  2  0  2     7.250     80
            0  1  1  2     7.250     81
            0  0  2  2     7.250     82
            2  0  0  2     4.650     83
            1  1  0  2     4.650     84
            1  0  1  2     4.650     85
            0  2  0  2     4.650     86
            0  1  1  2     4.650     87
            0  0  2  2     4.650     88
            2  0  0  3     2.900     89
            1  1  0  3     2.900     90
            1  0  1  3     2.900     91
            0  2  0  3     2.900     92
            0  1  1  3     2.900     93
            0  0  2  3     2.900     94
            2  0  0  3     1.600     95
            1  1  0  3     1.600     96
            1  0  1  3     1.600     97
            0  2  0  3     1.600     98
            0  1  1  3     1.600     99
            0  0  2  3     1.600    100
            2  0  0  3     0.880    101
            1  1  0  3     0.880    102
            1  0  1  3     0.880    103
            0  2  0  3     0.880    104
            0  1  1  3     0.880    105
            0  0  2  3     0.880    106
            3  0  0  0    17.450    107
            2  1  0  0    17.450    108
            2  0  1  0    17.450    109
            1  2  0  0    17.450    110
            1  1  1  0    17.450    111
            1  0  2  0    17.450    112
            0  3  0  0    17.450    113
            0  2  1  0    17.450    114
            0  1  2  0    17.450    115
            0  0  3  0    17.450    116
            3  0  0  0     9.600    117
            2  1  0  0     9.600    118
            2  0  1  0     9.600    119
            1  2  0  0     9.600    120
            1  1  1  0     9.600    121
            1  0  2  0     9.600    122
            0  3  0  0     9.600    123
            0  2  1  0     9.600    124
            0  1  2  0     9.600    125
            0  0  3  0     9.600    126
            3  0  0  1     5.800    127
            2  1  0  1     5.800    128
            2  0  1  1     5.800    129
            1  2  0  1     5.800    130
            1  1  1  1     5.800    131
            1  0  2  1     5.800    132
            0  3  0  1     5.800    133
            0  2  1  1     5.800    134
            0  1  2  1     5.800    135
            0  0  3  1     5.800    136
            3  0  0  1     3.000    137
            2  1  0  1     3.000    138
            2  0  1  1     3.000    139
            1  2  0  1     3.000    140
            1  1  1  1     3.000    141
            1  0  2  1     3.000    142
            0  3  0  1     3.000    143
            0  2  1  1     3.000    144
            0  1  2  1     3.000    145
            0  0  3  1     3.000    146
            3  0  0  1     1.390    147
            2  1  0  1     1.390    148
            2  0  1  1     1.390    149
            1  2  0  1     1.390    150
            1  1  1  1     1.390    151
            1  0  2  1     1.390    152
            0  3  0  1     1.390    153
            0  2  1  1     1.390    154
            0  1  2  1     1.390    155
            0  0  3  1     1.390    156
            1  0  0  5     1.550    157
            0  1  0  5     1.550    158
            0  0  1  5     1.550    159

 O                                    2    3
                                  ---------------------------------------------------------------------------
            0  0  0  0     9.800    160  190
            0  0  0  0     6.800    161  191
            0  0  0  1     7.580    162  192
            0  0  0  1     2.880    163  193
            0  0  0  1     1.720    164  194
            1  0  0  0     4.080    165  195
            0  1  0  0     4.080    166  196
            0  0  1  0     4.080    167  197
            1  0  0  0     2.080    168  198
            0  1  0  0     2.080    169  199
            0  0  1  0     2.080    170  200
            1  0  0  0     1.120    171  201
            0  1  0  0     1.120    172  202
            0  0  1  0     1.120    173  203
            2  0  0  0     2.000    174  204
            1  1  0  0     2.000    175  205
            1  0  1  0     2.000    176  206
            0  2  0  0     2.000    177  207
            0  1  1  0     2.000    178  208
            0  0  2  0     2.000    179  209
            3  0  0  0     3.000    180  210
            2  1  0  0     3.000    181  211
            2  0  1  0     3.000    182  212
            1  2  0  0     3.000    183  213
            1  1  1  0     3.000    184  214
            1  0  2  0     3.000    185  215
            0  3  0  0     3.000    186  216
            0  2  1  0     3.000    187  217
            0  1  2  0     3.000    188  218
            0  0  3  0     3.000    189  219

 Total number of charge fitting functions (nprimf)       565
 Total number of Cartesian basis functions (naos)        219
 Total number of Cartesian core functions  (ncos)          0

1
 ***************************************************************************************************



                                              ***********************
                                              *  T E C H N I C A L  *
                                              ***********************
  



 =============================================================
 P A R A L L E L I Z A T I O N  and  V E C T O R I Z A T I O N
 =============================================================
  
 Nr of parallel processes:                                8
 Maximum vector length in NumInt loops:                 128



 =====================
 S C F   U P D A T E S
 =====================
  
 Max. nr. of cycles:                               300
 Convergence criterion:                              0.0000010000
   secondary criterion:                              0.0010000000

 Mix parameter (when DIIS does not apply):           0.2000000000
 Mixed ADIIS+SDIIS will be used                  
    Max number of expansion vectors:                10
    Pure ADIIS when Max([F,P]) is above              0.1000000000
    Pure SDIIS when Max([F,P]) is below              0.0010000000
 Automatic ElectronSmearing (in case of problematic SCF convergence) disabled



 =================
 P R E C I S I O N  ***  (General: NumInt, NeglectFunctionTails, ...)  ***
 =================
  

 NumInt:           Target precision:                 4.0000000000
 -------           Initial precision:                4.0000000000
                   Min. precision (optimization):    4.0000000000

 Neglect Functions:          Basis functions:        0.1000000000E-13
 ------------------          Fit functions:          0.1000000000E-13



 ===========================
 L I N E A R   S C A L I N G
 ===========================
  

 Cut-off radii density fit:                        0.1000000000E-07
 Overlap cut-off criterion AO matrix elements:     0.1000000000E-05
 Cut-offs for Coulomb potential and fitted density:0.1000000000E-07
 Cut-off criterion for Coulomb multipole terms:    0.1000000000E-07
 Progressive Convergence parameter:                 0.000000000    
1
 ***************************************************************************************************



                                            ***************************
                                            *  C O M P U T A T I O N  *
                                            ***************************
  



 ==============================
 Double group spinor symmetries  ***  (Spin-Orbit)  ***
 ==============================
  

 The double group Lowdins are spinors adapted to the irreducible representations
 of the double group. These double group Lowdins are linear combinations of
 products of the single group Lowdins and the spinfunctions. The single group
 Lowdins are  orthonormalized symmetrized fragment orbitals (SFOs).
 The complex coefficients that are used in the linear combinations are also
 known as Clebsch-Gordan coefficients.
 The spin functions (alpha,beta) span irrep e1/2


          A * e 1/2 :      A1/2

  A1/2:1 = A.alpha
  A1/2:1 = A.beta

 The table summarizes which one-electron orbital irreps (single group) couple
 with spin to which spinor irreps (double group).
 The Clebsch-Gordan series for each direct product: orbital irrep times e1/2.
                  A
            -------
  A1/2           X


 dimension (equal to the max. nr. of electrons per spinor) of the double group irreps
 ------------------------------------------------------------------------------------
  A1/2           1

 Number of elements of the density matrix on this node (used, total):     12720     24090



 ===========================================
 Numerical Integration : Fuzzy Cells (Becke)
 ===========================================
  
 Becke grid quality: NORMAL         
  
 Lebedev angular grid order:             min:  11 max:  23
 Nr. of radial points:                   min:  49 max: 175

 Total nr. of points:      37102
 Nr. of blocks:              290
 Block length:               128
 Nr. of dummy points:         18


 Test of Precision of the Numerical Integration Grid
 ===================================================

 Integral of the Total Core Density:                   0.00000000000000



 ========================
 Density Fitting (zlmFit)
 ========================
  
 ZlmFit Fit Quality: NORMAL         
  
 Max L-expansion:                        min:   7 max:   7
 Nr. of radial interpolation points:     min:  54 max: 150



 ======================
 RI Hartree-Fock Scheme
 ======================
  
 Fit Set Quality     : NORMAL
 Integration Quality : NORMAL
 Threshold Quality   : NORMAL
 Response Quality    : DEFAULT
 Is Range Separated  :  T
 Type of Range Separation : 
 Long-Range: Erf potential                                                      
                                                                                
   
 Asymptotic Coulomb       :   0.650000000000000     
 
 RIHartreeFock Dependency: number of modified vectors:           0



 =====
 S C F  ***  ScaSCF  ***
 =====
  
 Initial density matrix is calculated as sum of fragments

 CYCLE    1
 SCF Error: norm([F,P])=   1407.962183162882, max([F,P])=    320.575545108399
 orbitals (Q,E):
 ---------------
 A1/2 :97...116      ( 1.00    -0.5972)  ( 1.00    -0.5972)  ( 1.00    -0.5771)  ( 1.00    -0.5771)
                     ( 1.00    -0.5625)  ( 1.00    -0.5625)  ( 1.00    -0.5427)  ( 1.00    -0.5427)
                     ( 1.00    -0.3790)  ( 1.00    -0.3790)  ( 0.00    -0.1883)  ( 0.00    -0.1883)
                     ( 0.00    -0.0928)  ( 0.00    -0.0928)  ( 0.00    -0.0857)  ( 0.00    -0.0857)
                     ( 0.00    -0.0661)  ( 0.00    -0.0661)  ( 0.00    -0.0643)  ( 0.00    -0.0643)

 CYCLE    2
   MIX coefficients:  0.8000  0.2000
 SCF Error: norm([F,P])=      2.955975104469, max([F,P])=      0.515497971252
 orbitals (Q,E):
 ---------------
 A1/2 :97...116      ( 1.00    -0.6211)  ( 1.00    -0.6211)  ( 1.00    -0.5987)  ( 1.00    -0.5987)
                     ( 1.00    -0.5962)  ( 1.00    -0.5962)  ( 1.00    -0.5852)  ( 1.00    -0.5852)
                     ( 1.00    -0.5081)  ( 1.00    -0.5081)  ( 0.00    -0.3155)  ( 0.00    -0.3155)
                     ( 0.00    -0.3135)  ( 0.00    -0.3135)  ( 0.00    -0.2885)  ( 0.00    -0.2885)
                     ( 0.00    -0.2838)  ( 0.00    -0.2838)  ( 0.00    -0.2776)  ( 0.00    -0.2776)

 CYCLE    3
  SDIIS (wt  0.000): -0.8855  1.8855
 A-DIIS (wt  1.000):  0.0000  1.0000
  DIIS coefficients:  0.0000  1.0000
 SCF Error: norm([F,P])=      2.025226623019, max([F,P])=      0.410558571458
 orbitals (Q,E):
 ---------------
 A1/2 :97...116      ( 1.00    -0.9975)  ( 1.00    -0.9975)  ( 1.00    -0.9969)  ( 1.00    -0.9969)
                     ( 1.00    -0.9375)  ( 1.00    -0.9375)  ( 1.00    -0.9315)  ( 1.00    -0.9315)
                     ( 1.00    -0.8826)  ( 1.00    -0.8826)  ( 0.00    -0.8799)  ( 0.00    -0.8799)
                     ( 0.00    -0.8526)  ( 0.00    -0.8526)  ( 0.00    -0.8509)  ( 0.00    -0.8509)
                     ( 0.00    -0.8314)  ( 0.00    -0.8314)  ( 0.00    -0.6462)  ( 0.00    -0.6462)

 CYCLE    4
  SDIIS (wt  0.000): -0.4060  1.2556  0.1504
 A-DIIS (wt  1.000):  0.0000  0.9435  0.0565
  DIIS coefficients:  0.0000  0.9435  0.0565
 SCF Error: norm([F,P])=      4.299839031846, max([F,P])=      0.737991247852
 orbitals (Q,E):
 ---------------
 A1/2 :97...116      ( 1.00    -0.9630)  ( 1.00    -0.9630)  ( 1.00    -0.9621)  ( 1.00    -0.9621)
                     ( 1.00    -0.9470)  ( 1.00    -0.9470)  ( 1.00    -0.9421)  ( 1.00    -0.9421)
                     ( 1.00    -0.8976)  ( 1.00    -0.8976)  ( 0.00    -0.7881)  ( 0.00    -0.7881)
                     ( 0.00    -0.7487)  ( 0.00    -0.7487)  ( 0.00    -0.7418)  ( 0.00    -0.7418)
                     ( 0.00    -0.7267)  ( 0.00    -0.7267)  ( 0.00    -0.6120)  ( 0.00    -0.6120)

 CYCLE    5
  SDIIS (wt  0.000):  0.4115 -0.3303 -0.2317  1.1505
 A-DIIS (wt  1.000):  0.0000  0.6955  0.0000  0.3045
  DIIS coefficients:  0.0000  0.6955  0.0000  0.3045
 SCF Error: norm([F,P])=      1.417186603193, max([F,P])=      0.251204087880
 orbitals (Q,E):
 ---------------
 A1/2 :97...116      ( 1.00    -0.9682)  ( 1.00    -0.9682)  ( 1.00    -0.9657)  ( 1.00    -0.9657)
                     ( 1.00    -0.9566)  ( 1.00    -0.9566)  ( 1.00    -0.9443)  ( 1.00    -0.9443)
                     ( 1.00    -0.9407)  ( 1.00    -0.9407)  ( 0.00    -0.6645)  ( 0.00    -0.6645)
                     ( 0.00    -0.6387)  ( 0.00    -0.6387)  ( 0.00    -0.6359)  ( 0.00    -0.6359)
                     ( 0.00    -0.6171)  ( 0.00    -0.6171)  ( 0.00    -0.5537)  ( 0.00    -0.5537)

 CYCLE    6
  SDIIS (wt  0.719): -0.0502  0.1228  0.0178 -0.1585  1.0681
 A-DIIS (wt  0.281):  0.0000  0.0000  0.0000  0.0000  1.0000
  DIIS coefficients: -0.0361  0.0883  0.0128 -0.1140  1.0490
 SCF Error: norm([F,P])=      0.242476445092, max([F,P])=      0.028805765209
 orbitals (Q,E):
 ---------------
 A1/2 :97...116      ( 1.00    -0.9737)  ( 1.00    -0.9737)  ( 1.00    -0.9680)  ( 1.00    -0.9680)
                     ( 1.00    -0.9568)  ( 1.00    -0.9568)  ( 1.00    -0.9550)  ( 1.00    -0.9550)
                     ( 1.00    -0.9207)  ( 1.00    -0.9207)  ( 0.00    -0.5995)  ( 0.00    -0.5995)
                     ( 0.00    -0.5782)  ( 0.00    -0.5782)  ( 0.00    -0.5677)  ( 0.00    -0.5677)
                     ( 0.00    -0.5560)  ( 0.00    -0.5560)  ( 0.00    -0.5119)  ( 0.00    -0.5119)

 CYCLE    7
  SDIIS (wt  0.719): -0.0444  0.0638 -0.0012  0.0715  0.2287  0.6815
 A-DIIS (wt  0.281):  0.0000  0.0000  0.0000  0.0000  0.6238  0.3762
  DIIS coefficients: -0.0319  0.0459 -0.0008  0.0514  0.3397  0.5957
 SCF Error: norm([F,P])=      0.251362795169, max([F,P])=      0.041019898205
 orbitals (Q,E):
 ---------------
 A1/2 :97...116      ( 1.00    -0.9640)  ( 1.00    -0.9640)  ( 1.00    -0.9627)  ( 1.00    -0.9627)
                     ( 1.00    -0.9515)  ( 1.00    -0.9515)  ( 1.00    -0.9444)  ( 1.00    -0.9444)
                     ( 1.00    -0.9260)  ( 1.00    -0.9260)  ( 0.00    -0.6200)  ( 0.00    -0.6200)
                     ( 0.00    -0.6003)  ( 0.00    -0.6003)  ( 0.00    -0.5917)  ( 0.00    -0.5917)
                     ( 0.00    -0.5783)  ( 0.00    -0.5783)  ( 0.00    -0.5251)  ( 0.00    -0.5251)

 CYCLE    8
  SDIIS (wt  0.985):  0.0022 -0.0024  0.0002 -0.0001  0.0455 -0.0327  0.9873
 A-DIIS (wt  0.015):  0.0000  0.0000  0.0000  0.0000  0.0000  0.0000  1.0000
  DIIS coefficients:  0.0022 -0.0023  0.0002 -0.0001  0.0448 -0.0322  0.9875
 SCF Error: norm([F,P])=      0.017171355338, max([F,P])=      0.002468862606
 orbitals (Q,E):
 ---------------
 A1/2 :97...116      ( 1.00    -0.9644)  ( 1.00    -0.9644)  ( 1.00    -0.9637)  ( 1.00    -0.9637)
                     ( 1.00    -0.9524)  ( 1.00    -0.9524)  ( 1.00    -0.9448)  ( 1.00    -0.9448)
                     ( 1.00    -0.9274)  ( 1.00    -0.9274)  ( 0.00    -0.6229)  ( 0.00    -0.6229)
                     ( 0.00    -0.6031)  ( 0.00    -0.6031)  ( 0.00    -0.5942)  ( 0.00    -0.5942)
                     ( 0.00    -0.5811)  ( 0.00    -0.5811)  ( 0.00    -0.5272)  ( 0.00    -0.5272)

 CYCLE    9
  SDIIS (wt  1.000):  0.0023 -0.0030 -0.0001 -0.0050  0.0079 -0.0405  0.2650  0.7734
  DIIS coefficients:  0.0023 -0.0030 -0.0001 -0.0050  0.0079 -0.0405  0.2650  0.7734
 SCF Error: norm([F,P])=      0.003506817875, max([F,P])=      0.000420126415
 orbitals (Q,E):
 ---------------
 A1/2 :97...116      ( 1.00    -0.9639)  ( 1.00    -0.9639)  ( 1.00    -0.9632)  ( 1.00    -0.9632)
                     ( 1.00    -0.9520)  ( 1.00    -0.9520)  ( 1.00    -0.9443)  ( 1.00    -0.9443)
                     ( 1.00    -0.9269)  ( 1.00    -0.9269)  ( 0.00    -0.6222)  ( 0.00    -0.6222)
                     ( 0.00    -0.6024)  ( 0.00    -0.6024)  ( 0.00    -0.5936)  ( 0.00    -0.5936)
                     ( 0.00    -0.5804)  ( 0.00    -0.5804)  ( 0.00    -0.5265)  ( 0.00    -0.5265)

 CYCLE   10
  SDIIS (wt  1.000): -0.0000  0.0000  0.0000 -0.0006 -0.0021  0.0084 -0.0821 -0.0696  1.1460
  DIIS coefficients: -0.0000  0.0000  0.0000 -0.0006 -0.0021  0.0084 -0.0821 -0.0696  1.1460
 SCF Error: norm([F,P])=      0.001959305203, max([F,P])=      0.000331569934
 orbitals (Q,E):
 ---------------
 A1/2 :97...116      ( 1.00    -0.9640)  ( 1.00    -0.9640)  ( 1.00    -0.9632)  ( 1.00    -0.9632)
                     ( 1.00    -0.9520)  ( 1.00    -0.9520)  ( 1.00    -0.9444)  ( 1.00    -0.9444)
                     ( 1.00    -0.9268)  ( 1.00    -0.9268)  ( 0.00    -0.6220)  ( 0.00    -0.6220)
                     ( 0.00    -0.6022)  ( 0.00    -0.6022)  ( 0.00    -0.5934)  ( 0.00    -0.5934)
                     ( 0.00    -0.5802)  ( 0.00    -0.5802)  ( 0.00    -0.5264)  ( 0.00    -0.5264)

 CYCLE   11
  SDIIS (wt  1.000): -0.0001  0.0001 -0.0000  0.0004  0.0001 -0.0007  0.0079 -0.0142 -0.2620  1.2685
  DIIS coefficients: -0.0001  0.0001 -0.0000  0.0004  0.0001 -0.0007  0.0079 -0.0142 -0.2620  1.2685
 SCF Error: norm([F,P])=      0.000162316539, max([F,P])=      0.000024846635
 orbitals (Q,E):
 ---------------
 A1/2 :97...116      ( 1.00    -0.9640)  ( 1.00    -0.9640)  ( 1.00    -0.9632)  ( 1.00    -0.9632)
                     ( 1.00    -0.9520)  ( 1.00    -0.9520)  ( 1.00    -0.9444)  ( 1.00    -0.9444)
                     ( 1.00    -0.9268)  ( 1.00    -0.9268)  ( 0.00    -0.6220)  ( 0.00    -0.6220)
                     ( 0.00    -0.6022)  ( 0.00    -0.6022)  ( 0.00    -0.5934)  ( 0.00    -0.5934)
                     ( 0.00    -0.5802)  ( 0.00    -0.5802)  ( 0.00    -0.5264)  ( 0.00    -0.5264)

 CYCLE   12
  SDIIS (wt  1.000): -0.0000 -0.0000  0.0000  0.0001 -0.0007  0.0072  0.0016 -0.0869 -0.2991  1.3778
  DIIS coefficients: -0.0000 -0.0000  0.0000  0.0001 -0.0007  0.0072  0.0016 -0.0869 -0.2991  1.3778
 SCF Error: norm([F,P])=      0.000058811722, max([F,P])=      0.000010564057
 orbitals (Q,E):
 ---------------
 A1/2 :97...116      ( 1.00    -0.9640)  ( 1.00    -0.9640)  ( 1.00    -0.9632)  ( 1.00    -0.9632)
                     ( 1.00    -0.9520)  ( 1.00    -0.9520)  ( 1.00    -0.9444)  ( 1.00    -0.9444)
                     ( 1.00    -0.9268)  ( 1.00    -0.9268)  ( 0.00    -0.6220)  ( 0.00    -0.6220)
                     ( 0.00    -0.6022)  ( 0.00    -0.6022)  ( 0.00    -0.5934)  ( 0.00    -0.5934)
                     ( 0.00    -0.5802)  ( 0.00    -0.5802)  ( 0.00    -0.5264)  ( 0.00    -0.5264)

 CYCLE   13
  SDIIS (wt  1.000): -0.0000  0.0000  0.0001 -0.0003  0.0038  0.0015 -0.0380 -0.2964  0.9176  0.4117
  DIIS coefficients: -0.0000  0.0000  0.0001 -0.0003  0.0038  0.0015 -0.0380 -0.2964  0.9176  0.4117
 SCF Error: norm([F,P])=      0.000051999867, max([F,P])=      0.000007234583
 orbitals (Q,E):
 ---------------
 A1/2 :97...116      ( 1.00    -0.9640)  ( 1.00    -0.9640)  ( 1.00    -0.9632)  ( 1.00    -0.9632)
                     ( 1.00    -0.9520)  ( 1.00    -0.9520)  ( 1.00    -0.9444)  ( 1.00    -0.9444)
                     ( 1.00    -0.9268)  ( 1.00    -0.9268)  ( 0.00    -0.6220)  ( 0.00    -0.6220)
                     ( 0.00    -0.6022)  ( 0.00    -0.6022)  ( 0.00    -0.5934)  ( 0.00    -0.5934)
                     ( 0.00    -0.5802)  ( 0.00    -0.5802)  ( 0.00    -0.5264)  ( 0.00    -0.5264)

 CYCLE   14
  SDIIS (wt  1.000): -0.0000 -0.0000  0.0001 -0.0010  0.0008  0.0124 -0.0070 -0.1255  0.1644  0.9557
  DIIS coefficients: -0.0000 -0.0000  0.0001 -0.0010  0.0008  0.0124 -0.0070 -0.1255  0.1644  0.9557
 SCF Error: norm([F,P])=      0.000013162724, max([F,P])=      0.000002127059
 orbitals (Q,E):
 ---------------
 A1/2 :97...116      ( 1.00    -0.9640)  ( 1.00    -0.9640)  ( 1.00    -0.9632)  ( 1.00    -0.9632)
                     ( 1.00    -0.9520)  ( 1.00    -0.9520)  ( 1.00    -0.9444)  ( 1.00    -0.9444)
                     ( 1.00    -0.9268)  ( 1.00    -0.9268)  ( 0.00    -0.6220)  ( 0.00    -0.6220)
                     ( 0.00    -0.6022)  ( 0.00    -0.6022)  ( 0.00    -0.5934)  ( 0.00    -0.5934)
                     ( 0.00    -0.5802)  ( 0.00    -0.5802)  ( 0.00    -0.5264)  ( 0.00    -0.5264)

 CYCLE   15
  SDIIS (wt  1.000): -0.0000  0.0001 -0.0005 -0.0003  0.0048  0.0263 -0.0857 -0.0405 -0.0108  1.1067
  DIIS coefficients: -0.0000  0.0001 -0.0005 -0.0003  0.0048  0.0263 -0.0857 -0.0405 -0.0108  1.1067
 SCF Error: norm([F,P])=      0.000002300530, max([F,P])=      0.000000465611
 orbitals (Q,E):
 ---------------
 A1/2 :97...116      ( 1.00    -0.9640)  ( 1.00    -0.9640)  ( 1.00    -0.9632)  ( 1.00    -0.9632)
                     ( 1.00    -0.9520)  ( 1.00    -0.9520)  ( 1.00    -0.9444)  ( 1.00    -0.9444)
                     ( 1.00    -0.9268)  ( 1.00    -0.9268)  ( 0.00    -0.6220)  ( 0.00    -0.6220)
                     ( 0.00    -0.6022)  ( 0.00    -0.6022)  ( 0.00    -0.5934)  ( 0.00    -0.5934)
                     ( 0.00    -0.5802)  ( 0.00    -0.5802)  ( 0.00    -0.5264)  ( 0.00    -0.5264)

 SCF CONVERGED

 CYCLE   16
1
 ***************************************************************************************************



                                                *******************
                                                *  R E S U L T S  *
                                                *******************
  
  
 Hartree-Fock exchange energy:   -102.208195254568     
 *** Using EXACT density in Focky


 *** Use of untested dispersion parameters detected in GrimmeDispersion ***


  SDIIS (wt  1.000):  0.0000  0.0000 -0.0002 -0.0000  0.0036 -0.0006 -0.0153 -0.0679  0.0512  1.0293
  DIIS coefficients:  0.0000  0.0000 -0.0002 -0.0000  0.0036 -0.0006 -0.0153 -0.0679  0.0512  1.0293
 SCF Error: norm([F,P])=      0.000001662917, max([F,P])=      0.000000295936

 Scaled ZORA Orbital Energies, per Irrep and Spin:
 =================================================
                        Occup              E (au)              E (eV)       Diff (eV) with prev. cycle
                        -----      --------------------        ------       --------------------------
 A1/2
              97        1.000     -0.96398615378936E+00       -26.231               3.53E-06
              98        1.000     -0.96398615371045E+00       -26.231               3.53E-06
              99        1.000     -0.96324566637373E+00       -26.211               2.69E-06
             100        1.000     -0.96324566632516E+00       -26.211               2.69E-06
             101        1.000     -0.95197749017201E+00       -25.905               2.22E-06
             102        1.000     -0.95197749013427E+00       -25.905               2.22E-06
             103        1.000     -0.94439935278841E+00       -25.698              -3.78E-07
             104        1.000     -0.94439935274809E+00       -25.698              -3.77E-07
             105        1.000     -0.92684409070045E+00       -25.221               7.01E-06
             106        1.000     -0.92684409063939E+00       -25.221               7.01E-06
             107        0.000     -0.62199033405720E+00       -16.925
             108        0.000     -0.62199033403578E+00       -16.925
             109        0.000     -0.60223820970707E+00       -16.388
             110        0.000     -0.60223820968958E+00       -16.388
             111        0.000     -0.59340053368268E+00       -16.147
             112        0.000     -0.59340053367228E+00       -16.147
             113        0.000     -0.58020967183128E+00       -15.788
             114        0.000     -0.58020967177656E+00       -15.788
             115        0.000     -0.52636301943327E+00       -14.323
             116        0.000     -0.52636301941412E+00       -14.323
  
 HOMO :      106 A1/2             -0.92684409063939E+00
 LUMO :      107 A1/2             -0.62199033405720E+00
  


 All Electron Calculation, thus no Orbital Energies of the Core Orbitals are calculated


 Fit test: (difference of exact and fit density, squared integrated, result summed over spins)
         Sum-of-Fragments:                             0.00000785573127
         Orthogonalized Fragments:                     0.00308935944324
         SCF:                                          0.00307216374370



 ==========================
 Electron Density at Nuclei
 ==========================
  
 The electron density is calculated at points on a small sphere around the center of a nucleus.
 The printed electron density is the average electron density on these points.
 The radius of the sphere is the printed approximate finite nuclear radius.
 Note: ZORA-4 density is used, which includes small component density

         Atom        Nuclear Radius (Angstrom)             Electron Density (a.u.)
         ----        -------------------------             -----------------------
     1)   U                 0.0000742428                          4173002.81355
     2)   O                 0.0000345546                              314.26880
     3)   O                 0.0000345546                              314.26883



 =======================================
 M U L L I K E N   P O P U L A T I O N S
 =======================================
  
 The survey below gives for each atom:
 a) the total charge (Z minus electrons)
 b) the net spin polarization (nr of electrons spin-A minus spin-B)
 c) for each spin the atomic electron valence density (integrated) per L-value.

 Atom              Charge    Spin density          S         P         D         F
 ----              ------    ------------       ------    ------    ------    ------
 1 U               2.6436                      11.9842   29.7017   31.2283   16.4423
 2 O              -0.3218                       3.9294    4.3200    0.0665    0.0058
 3 O              -0.3218                       3.9294    4.3200    0.0665    0.0058

 Populations of individual BAS functions
 ----------------------------------------
 1 U            0.0197  0.3715  1.5527  0.0516  1.8712  0.1250  2.0058  1.7735  0.0243  1.4582
                0.8497  1.3987  0.4728  0.0021  0.0104 -0.0028  0.0147  0.0147  0.0147  0.2509
                0.2509  0.2509  1.7347  1.7345  1.7345  1.8989  1.8990  1.8990 -0.3999 -0.4001
               -0.4001  1.4379  1.4382  1.4382  1.0905  1.0895  1.0894  1.4398  1.4477  1.4477
                0.6322  0.6334  0.6334  0.9846  1.0425  1.0425  0.6283  0.7869  0.7869  0.0418
                0.0425  0.0425  0.5549  0.8318  0.8318  0.5545  0.8313  0.5545  0.7701  1.1557
                1.1557  0.7705  1.1562  0.7705  0.8421  1.2600  1.2600  0.8390  1.2574  0.8390
                0.5396  0.8107  0.8107  0.5408  0.8124  0.5408  0.9383  1.3748  1.3748  0.9072
                1.3602  0.9072  0.3885  0.5902  0.5902  0.3975  0.5820  0.3975  0.2951  0.3340
                0.3340  0.0589  0.0007  0.0589 -0.0135  0.0416  0.0416 -0.0007  0.0001 -0.0007
               -0.0038 -0.0088 -0.0088  0.0006 -0.0000  0.0006  0.3927  0.7665  0.7665  0.7631
                0.9447  0.7631  0.3790  0.7559  0.7559  0.3790  0.4149  0.8431  0.8431  0.8470
                1.0611  0.8470  0.4247  0.8492  0.8492  0.4247  0.1243  0.1297  0.1297  0.1690
               -0.0059  0.1690  0.0426  0.0095  0.0095  0.0426  0.1528  0.2543  0.2543  0.2688
                0.0019  0.2688  0.0779  0.0269  0.0269  0.0779  0.0051  0.0480  0.0480  0.0133
                0.0000  0.0133  0.0053  0.0017  0.0017  0.0053  0.0044 -0.0084 -0.0084
 2 O            0.6759  1.2713  0.0237  1.0667  0.8917  0.2674  0.2516  0.2516  0.8730  0.8822
                0.8822  0.2085  0.3517  0.3517  0.0259  0.0239  0.0239 -0.0036  0.0000 -0.0036
                0.0186  0.0136  0.0136 -0.0083 -0.0000 -0.0083 -0.0087 -0.0029 -0.0029 -0.0087
 3 O            0.6759  1.2713  0.0237  1.0667  0.8917  0.2674  0.2516  0.2516  0.8730  0.8822
                0.8822  0.2085  0.3517  0.3517  0.0259  0.0239  0.0239 -0.0036  0.0000 -0.0036
                0.0186  0.0136  0.0136 -0.0083 -0.0000 -0.0083 -0.0087 -0.0029 -0.0029 -0.0087

 Gross Charges per Atom (Z minus electrons)
 ==========================================
             2.6436   -0.3218   -0.3218
 Net Total:  2.00000000


 Atom-Atom Population Matrix (off-diagonal elements not doubled)
 ===============================================================

     1 :    88.6810
     2 :     0.3377    7.9825
     3 :     0.3377    0.0016    7.9825



 =================================================
 H I R S H F E L D   C H A R G E   A N A L Y S I S
 =================================================
  
 For each fragment: the (numerical) integral of rho(scf) * rho(fragment)/rho(sum-of-fragments)
 (nuclear charges are included, electrons are counted negative)

 The fragments and their ordering are defined in the early G E O M E T R Y output section.
 If you use single-atom fragments, this usually implies that all atoms of the same
 chemical type are grouped together. This may not be the order in which you listed them
 in the input file!

    1  U                         2.2157
    2  O                        -0.1078
    3  O                        -0.1078

 Sum of these charges (accuracy NumInt/Tails) =           2.00012043



 =============================
 V O R O N O I   C H A R G E S
 =============================
  
 For each atom: the (numerical) integral of the total electronic charge density in its Voronoi cell,
 i.e. the region of space that is closer to that atom than to any other atom.
 (cf. Wigner-Seitz cells in crystals)

 Within the Voronoi cell the subintegrals over the atomic sphere and the remaining part are evaluated
 separately to give the numbers of electrons (negative charge) in these regions.
 The net total charge in the cell (including the nuclear charge) is also given.

 Values are provided for
    a) the Initial (sum-of-fragments) density
    b) the Orthogonalized-Fragments density
    c) the SCF density
    d) the Voronoi Deformation Density (VDD): the difference SCF-Initial for the complete atomic cell


  Atom                Initial                    OrthFrag                   SCF
             Sphere RestCell NetTotal   Sphere RestCell NetTotal   Sphere RestCell NetTotal      VDD
 -----       ------------------------   ------------------------   ------------------------    -----
    1 U     -75.820  -13.788    2.392  -75.898  -13.800    2.301  -75.679  -12.299    4.022    1.630
    2 O      -3.874   -5.322   -1.196   -4.143   -5.007   -1.151   -3.943   -5.068   -1.011    0.185
    3 O      -3.874   -5.322   -1.196   -4.143   -5.007   -1.151   -3.943   -5.068   -1.011    0.185
 ---------------------------------------------------------------------------------------------------
 Total NetCharge:               0.000                      0.000                      2.000    2.000
 (accuracy NumInt/Tails)

 Remark: the 'NetTotal' Voronoi charges often do not match the Mulliken and/or Hirshfeld charges very
 well. This is caused by the fact that chemically different atoms are not treated in accordance with
 their relative sizes. (Voronoi cells are defined by boundary planes halfway between the atoms.)
 However, the CHANGES in charge, comparing 'Initial' to 'SCF' for instance, do give a fair indication
 of the flow of charge caused by the relaxation from sum-of-fragments to self-consistency.

 Warning: the absolute accuracy of the VDD charges obtained using the Fuzzy Cells (Becke) integration
 scheme is much poorer than the one obtained with an 'equivalent' Voronoi integration grid. 



 =================================================================
 M U L T I P O L E   D E R I V E D   C H A R G E   A N A L Y S I S
 =================================================================

 This charge analysis uses the atomic multipoles (obtained from the fitted density) up to some level X,
 and reconstructs these multipoles exactly (up to level X) by distributing charges over all atoms.
 This is achieved by using Lagrange multipliers and a weight function to keep the multipoles local.

 Dummy atoms can be included (by setting INCDUM in MDC-block to 1) to obtain a fractional charge.
 This is generally useful and necessary only for small symmetrical molecules, when there are not
 enough degrees of freedom to reconstruct the multipoles.

 Since the atomic multipoles are reconstructed up to level X,
 the molecular multipoles are represented also up to level X.
 The recommended level is to reconstruct up to quadrupole : -> MDC-q charges.

 See: M. Swart, P.Th. van Duijnen, J.G. Snijders, J.Comput.Chem., (2001), p. 79-88.

 ------------------------------------------------------------- 
 Atomic electronic multipole moments from SCF equations (a.u.)
 ------------------------------------------------------------- 

   atom        charge        dip-x     dip-y     dip-z      quad-xx   quad-xy   quad-xz   quad-yy   quad-yz   quad-zz
 --------------------------------------------------------------------------------------------------------------------
    1 U      3.498854     0.000000 -0.000000  0.000004     1.431380 -0.000000 -0.000000 -0.715707 -0.000000 -0.715673
    2 O     -0.749427     0.664141  0.000000  0.000002     0.180577 -0.000000  0.000000 -0.090353  0.000000 -0.090224
    3 O     -0.749427    -0.664141  0.000000  0.000002     0.180577  0.000000  0.000000 -0.090353  0.000000 -0.090224

 --------------------------------------- 
 Multipole derived atomic charges (a.u.)
 --------------------------------------- 

 The MDC-m charges are just the Monopole terms in the multipole expansion, while for the MDC-d charges
 also the Dipoles are reconstructed. The usually preferred charges are the MDC-q charges.
 These reconstruct the Monopoles, Dipoles and Quadrupoles (both atomic AND molecular).

        Atom    Level:     MDC-m        MDC-d        MDC-q
 ---------------------------------------------------------
     1     U            3.498854     2.841097     2.527237
     2     O           -0.749427    -0.420548    -0.263618
     3     O           -0.749427    -0.420549    -0.263619

 ------------------------------------------------ 
 Average absolute deviations in atomic multipoles
 ------------------------------------------------ 

 Stated here are the average differences between the atomic multipoles
 and the reconstructed atomic multipoles (from the distributed charges).
 If these values are not zero, this means there are not enough degrees of freedom,
 to be able to reconstruct the atomic multipoles. (This usually happens only
 for small and/or highly symmetric molecules). If this is the case, one could add
 dummy atoms as extra point charges (and setting INCDUM in MDC-block to 1).

 Level:                                 MDC-d        MDC-q
 ---------------------------------------------------------
 Charge   (a.u.)                       0.0000       0.0000
 Dipole   (Debye)                      0.0000       0.0000
 Quad.    (a.u.)                       0.8244       0.0000

[...]
   i, eigenvalue(i) in dvdson    13    0.1093581990E+00
   i, eigenvalue(i) in dvdson    14    0.1259579810E+00
   i, eigenvalue(i) in dvdson    15    0.1259580243E+00
   i, eigenvalue(i) in dvdson    16    0.1282725328E+00


**************************************************************************
*                                                                        *
*   Final excitation energies from Davidson algorithm                    *
*                                                                        *
**************************************************************************

    Number of loops in Davidson routine     =   17
    Number of matrix-vector multiplications =  424
    Type of excitations = SPIN-POLARIZED  


 Symmetry A    

 Excitation energies E in a.u. and eV, dE wrt prev. cycle,
 oscillator strengths f in a.u.

 no.  E/a.u.        E/eV      f           dE/a.u.
 -----------------------------------------------------
   1 0.64228E-01  1.7477     0.75234E-12  0.41E-11
   2 0.64250E-01  1.7483     0.27590E-11  0.36E-10
   3 0.70377E-01  1.9151     0.13095E-11  0.36E-10
   4 0.70377E-01  1.9151     0.11355E-11  0.20E-10
   5 0.77488E-01  2.1086     0.68314E-11  0.16E-09
   6 0.77488E-01  2.1086     0.22481E-10  0.10E-09
   7 0.86076E-01  2.3422     0.28868E-10  0.10E-09
   8 0.86297E-01  2.3483     0.18468E-09  0.93E-09
   9 0.94491E-01  2.5712     0.85097E-07  0.30E-06
  10 0.10027      2.7285     0.17783E-08  0.13E-07
  11 0.10027      2.7285     0.14623E-08  0.84E-08
  12 0.10936      2.9758     0.13760E-08  0.48E-08
  13 0.10936      2.9758     0.53882E-08  0.14E-07
  14 0.12596      3.4275     0.36011E-09  0.20E-08
  15 0.12596      3.4275     0.88671E-10  0.12E-08
  16 0.12827      3.4905     0.58925E-08  0.40E-07

 Transition dipole moments mu (x,y,z) in a.u.
 (weak excitations are not printed)

 no.  E/eV          f           Re mu (x,y,z)                          Im mu (x,y,z)
 -------------------------------------------------------------------------------------------------------
   9  2.5712     0.85097E-07  0.93388E-03 -0.29358E-03  0.96020E-04   0.0000     -0.59752E-03  0.16219E-03
  10  2.7285     0.17783E-08  0.12899E-03 -0.47976E-04  0.18094E-04   0.0000     -0.85612E-04  0.19583E-05
  11  2.7285     0.14623E-08  0.53540E-04  0.11079E-03 -0.51466E-04  0.33605E-04   0.0000     -0.54381E-04
  12  2.9758     0.13760E-08  0.13105E-03 -0.29978E-04 -0.67875E-05   0.0000     -0.26292E-04 -0.79122E-05
  13  2.9758     0.53882E-08  0.26729E-03  0.15876E-04 -0.24524E-05   0.0000      0.34424E-04 -0.31972E-04
  16  3.4905     0.58925E-08  0.24557E-03 -0.53136E-04  0.29135E-04   0.0000     -0.69313E-04 -0.11086E-04

 no.  E/eV          f           |mu| (x,y,z)
 --------------------------- --------------------------------------
   9  2.5712     0.85097E-07  0.93388E-03  0.66575E-03  0.18848E-03
  10  2.7285     0.17783E-08  0.12899E-03  0.98139E-04  0.18200E-04
  11  2.7285     0.14623E-08  0.63213E-04  0.11079E-03  0.74874E-04
  12  2.9758     0.13760E-08  0.13105E-03  0.39874E-04  0.10425E-04
  13  2.9758     0.53882E-08  0.26729E-03  0.37908E-04  0.32066E-04
  16  3.4905     0.58925E-08  0.24557E-03  0.87337E-04  0.31172E-04
 
                                                        
 Major MO -> MO transitions for the above excitations   
                                                        
    Excitation  Occupied to virtual  Contribution       

     Nr.          orbitals           weight (sum=1)


     1: 106 a1/2   -> 108 a1/2      0.4750
     1: 105 a1/2   -> 107 a1/2      0.4750
     1:  99 a1/2   -> 107 a1/2      0.0110
     1: 100 a1/2   -> 108 a1/2      0.0110
     1: 106 a1/2   -> 110 a1/2      0.0064
     1: 105 a1/2   -> 109 a1/2      0.0064
     1:  94 a1/2   -> 108 a1/2      0.0051
     1:  93 a1/2   -> 107 a1/2      0.0051
     1:  99 a1/2   -> 109 a1/2      0.0012
     1: 100 a1/2   -> 110 a1/2      0.0012
     1: 106 a1/2   -> 154 a1/2      0.0003
     1: 105 a1/2   -> 153 a1/2      0.0003


     2: 106 a1/2   -> 107 a1/2      0.4750
     2: 105 a1/2   -> 108 a1/2      0.4750
     2:  99 a1/2   -> 108 a1/2      0.0110
     2: 100 a1/2   -> 107 a1/2      0.0110
     2: 105 a1/2   -> 110 a1/2      0.0065
     2: 106 a1/2   -> 109 a1/2      0.0065
     2:  93 a1/2   -> 108 a1/2      0.0051
     2:  94 a1/2   -> 107 a1/2      0.0051
     2: 100 a1/2   -> 109 a1/2      0.0012
     2:  99 a1/2   -> 110 a1/2      0.0012
     2: 105 a1/2   -> 154 a1/2      0.0003
     2: 106 a1/2   -> 153 a1/2      0.0003


     3: 106 a1/2   -> 107 a1/2      0.2559
     3: 105 a1/2   -> 108 a1/2      0.2559
     3: 106 a1/2   -> 108 a1/2      0.1857
     3: 105 a1/2   -> 107 a1/2      0.1857
     3: 106 a1/2   -> 111 a1/2      0.0214
     3: 105 a1/2   -> 112 a1/2      0.0214
     3: 106 a1/2   -> 112 a1/2      0.0155
     3: 105 a1/2   -> 111 a1/2      0.0155
     3:  99 a1/2   -> 108 a1/2      0.0051
     3: 100 a1/2   -> 107 a1/2      0.0051
     3:  99 a1/2   -> 107 a1/2      0.0037
     3: 100 a1/2   -> 108 a1/2      0.0037
     3: 106 a1/2   -> 114 a1/2      0.0030
     3: 105 a1/2   -> 113 a1/2      0.0030
     3:  94 a1/2   -> 107 a1/2      0.0023
     3:  93 a1/2   -> 108 a1/2      0.0023
     3: 105 a1/2   -> 114 a1/2      0.0022
     3: 106 a1/2   -> 113 a1/2      0.0022
     3:  94 a1/2   -> 108 a1/2      0.0017
     3:  93 a1/2   -> 107 a1/2      0.0017


     4: 105 a1/2   -> 107 a1/2      0.2559
     4: 106 a1/2   -> 108 a1/2      0.2559
     4: 106 a1/2   -> 107 a1/2      0.1857
     4: 105 a1/2   -> 108 a1/2      0.1857
     4: 105 a1/2   -> 111 a1/2      0.0214
     4: 106 a1/2   -> 112 a1/2      0.0214
     4: 106 a1/2   -> 111 a1/2      0.0155
     4: 105 a1/2   -> 112 a1/2      0.0155
     4: 100 a1/2   -> 108 a1/2      0.0051
     4:  99 a1/2   -> 107 a1/2      0.0051
     4:  99 a1/2   -> 108 a1/2      0.0037
     4: 100 a1/2   -> 107 a1/2      0.0037
     4: 105 a1/2   -> 114 a1/2      0.0030
     4: 106 a1/2   -> 113 a1/2      0.0030
     4:  93 a1/2   -> 107 a1/2      0.0023
     4:  94 a1/2   -> 108 a1/2      0.0023
     4: 106 a1/2   -> 114 a1/2      0.0022
     4: 105 a1/2   -> 113 a1/2      0.0022
     4:  93 a1/2   -> 108 a1/2      0.0017
     4:  94 a1/2   -> 107 a1/2      0.0017


     5: 106 a1/2   -> 109 a1/2      0.3681
     5: 105 a1/2   -> 110 a1/2      0.3681
     5: 105 a1/2   -> 109 a1/2      0.1084
     5: 106 a1/2   -> 110 a1/2      0.1083
     5: 100 a1/2   -> 109 a1/2      0.0107
     5:  99 a1/2   -> 110 a1/2      0.0107
     5:  94 a1/2   -> 109 a1/2      0.0040
     5:  93 a1/2   -> 110 a1/2      0.0040
     5:  99 a1/2   -> 109 a1/2      0.0031
     5: 100 a1/2   -> 110 a1/2      0.0031
     5: 101 a1/2   -> 108 a1/2      0.0013
     5: 102 a1/2   -> 107 a1/2      0.0013
     5:  93 a1/2   -> 109 a1/2      0.0012
     5:  94 a1/2   -> 110 a1/2      0.0012
     5: 104 a1/2   -> 118 a1/2      0.0008
     5: 103 a1/2   -> 117 a1/2      0.0008
     5: 106 a1/2   -> 149 a1/2      0.0004
     5: 105 a1/2   -> 150 a1/2      0.0004
     5: 102 a1/2   -> 108 a1/2      0.0004
     5: 101 a1/2   -> 107 a1/2      0.0004


     6: 106 a1/2   -> 110 a1/2      0.3681
     6: 105 a1/2   -> 109 a1/2      0.3681
     6: 105 a1/2   -> 110 a1/2      0.1084
     6: 106 a1/2   -> 109 a1/2      0.1083
     6: 100 a1/2   -> 110 a1/2      0.0107
     6:  99 a1/2   -> 109 a1/2      0.0107
     6:  94 a1/2   -> 110 a1/2      0.0040
     6:  93 a1/2   -> 109 a1/2      0.0040
     6:  99 a1/2   -> 110 a1/2      0.0031
     6: 100 a1/2   -> 109 a1/2      0.0031
     6: 101 a1/2   -> 107 a1/2      0.0013
     6: 102 a1/2   -> 108 a1/2      0.0013
     6:  93 a1/2   -> 110 a1/2      0.0012
     6:  94 a1/2   -> 109 a1/2      0.0012
     6: 103 a1/2   -> 118 a1/2      0.0008
     6: 104 a1/2   -> 117 a1/2      0.0008
     6: 106 a1/2   -> 150 a1/2      0.0004
     6: 105 a1/2   -> 149 a1/2      0.0004
     6: 102 a1/2   -> 107 a1/2      0.0004
     6: 101 a1/2   -> 108 a1/2      0.0004


     7: 106 a1/2   -> 110 a1/2      0.3598
     7: 105 a1/2   -> 109 a1/2      0.3598
     7: 106 a1/2   -> 113 a1/2      0.1153
     7: 105 a1/2   -> 114 a1/2      0.1153
     7: 105 a1/2   -> 107 a1/2      0.0062
     7: 106 a1/2   -> 108 a1/2      0.0062
     7:  99 a1/2   -> 109 a1/2      0.0060
     7: 100 a1/2   -> 110 a1/2      0.0060
     7:  99 a1/2   -> 114 a1/2      0.0041
     7: 100 a1/2   -> 113 a1/2      0.0041
     7:  93 a1/2   -> 109 a1/2      0.0031
     7:  94 a1/2   -> 110 a1/2      0.0031
     7:  93 a1/2   -> 114 a1/2      0.0018
     7:  94 a1/2   -> 113 a1/2      0.0018
     7: 102 a1/2   -> 112 a1/2      0.0011
     7: 101 a1/2   -> 111 a1/2      0.0011
     7: 103 a1/2   -> 118 a1/2      0.0005
     7: 104 a1/2   -> 117 a1/2      0.0005
     7: 105 a1/2   -> 149 a1/2      0.0003
     7: 106 a1/2   -> 150 a1/2      0.0003


     8: 105 a1/2   -> 110 a1/2      0.3563
     8: 106 a1/2   -> 109 a1/2      0.3562
     8: 105 a1/2   -> 113 a1/2      0.1189
     8: 106 a1/2   -> 114 a1/2      0.1189
     8: 105 a1/2   -> 108 a1/2      0.0061
     8: 106 a1/2   -> 107 a1/2      0.0061
     8: 100 a1/2   -> 109 a1/2      0.0059
     8:  99 a1/2   -> 110 a1/2      0.0059
     8: 100 a1/2   -> 114 a1/2      0.0041
     8:  99 a1/2   -> 113 a1/2      0.0041
     8:  93 a1/2   -> 110 a1/2      0.0031
     8:  94 a1/2   -> 109 a1/2      0.0031
     8:  93 a1/2   -> 113 a1/2      0.0019
     8:  94 a1/2   -> 114 a1/2      0.0019
     8: 102 a1/2   -> 111 a1/2      0.0011
     8: 101 a1/2   -> 112 a1/2      0.0011
     8: 103 a1/2   -> 117 a1/2      0.0006
     8: 104 a1/2   -> 118 a1/2      0.0006
     8: 106 a1/2   -> 149 a1/2      0.0003
     8: 105 a1/2   -> 150 a1/2      0.0003


     9: 105 a1/2   -> 111 a1/2      0.4382
     9: 106 a1/2   -> 112 a1/2      0.4380
     9: 105 a1/2   -> 112 a1/2      0.0425
     9: 106 a1/2   -> 111 a1/2      0.0424
     9:  99 a1/2   -> 111 a1/2      0.0110
     9: 100 a1/2   -> 112 a1/2      0.0109
     9:  93 a1/2   -> 111 a1/2      0.0046
     9:  94 a1/2   -> 112 a1/2      0.0046
     9:  99 a1/2   -> 112 a1/2      0.0011
     9: 101 a1/2   -> 114 a1/2      0.0011
     9: 102 a1/2   -> 113 a1/2      0.0011
     9: 100 a1/2   -> 111 a1/2      0.0011
     9: 106 a1/2   -> 155 a1/2      0.0005
     9: 105 a1/2   -> 156 a1/2      0.0005
     9:  93 a1/2   -> 112 a1/2      0.0005


    10: 106 a1/2   -> 114 a1/2      0.2480
    10: 105 a1/2   -> 113 a1/2      0.2478
    10: 106 a1/2   -> 113 a1/2      0.1460
    10: 105 a1/2   -> 114 a1/2      0.1458
    10: 106 a1/2   -> 111 a1/2      0.0556
    10: 105 a1/2   -> 112 a1/2      0.0528
    10: 106 a1/2   -> 112 a1/2      0.0323
    10: 105 a1/2   -> 111 a1/2      0.0315
    10:  99 a1/2   -> 113 a1/2      0.0057
    10: 100 a1/2   -> 114 a1/2      0.0056
    10:  99 a1/2   -> 114 a1/2      0.0033
    10: 100 a1/2   -> 113 a1/2      0.0033
    10:  94 a1/2   -> 114 a1/2      0.0029
    10:  93 a1/2   -> 113 a1/2      0.0029
    10: 100 a1/2   -> 111 a1/2      0.0022
    10:  99 a1/2   -> 112 a1/2      0.0021
    10:  94 a1/2   -> 113 a1/2      0.0017
    10:  93 a1/2   -> 114 a1/2      0.0017
    10: 100 a1/2   -> 112 a1/2      0.0013
    10:  99 a1/2   -> 111 a1/2      0.0013


    11: 106 a1/2   -> 113 a1/2      0.2479
    11: 105 a1/2   -> 114 a1/2      0.2478
    11: 105 a1/2   -> 113 a1/2      0.1459
    11: 106 a1/2   -> 114 a1/2      0.1459
    11: 106 a1/2   -> 112 a1/2      0.0542
    11: 105 a1/2   -> 111 a1/2      0.0542
    11: 105 a1/2   -> 112 a1/2      0.0320
    11: 106 a1/2   -> 111 a1/2      0.0318
    11: 100 a1/2   -> 113 a1/2      0.0056
    11:  99 a1/2   -> 114 a1/2      0.0056
    11:  99 a1/2   -> 113 a1/2      0.0033
    11: 100 a1/2   -> 114 a1/2      0.0033
    11:  93 a1/2   -> 114 a1/2      0.0029
    11:  94 a1/2   -> 113 a1/2      0.0029
    11: 100 a1/2   -> 112 a1/2      0.0022
    11:  99 a1/2   -> 111 a1/2      0.0022
    11:  93 a1/2   -> 113 a1/2      0.0017
    11:  94 a1/2   -> 114 a1/2      0.0017
    11:  99 a1/2   -> 112 a1/2      0.0013
    11: 100 a1/2   -> 111 a1/2      0.0013


    12: 106 a1/2   -> 112 a1/2      0.2959
    12: 105 a1/2   -> 111 a1/2      0.2959
    12: 105 a1/2   -> 112 a1/2      0.0656
    12: 106 a1/2   -> 111 a1/2      0.0654
    12: 105 a1/2   -> 114 a1/2      0.0647
    12: 106 a1/2   -> 113 a1/2      0.0647
    12: 106 a1/2   -> 108 a1/2      0.0380
    12: 105 a1/2   -> 107 a1/2      0.0380
    12: 106 a1/2   -> 114 a1/2      0.0145
    12: 105 a1/2   -> 113 a1/2      0.0142
    12: 105 a1/2   -> 108 a1/2      0.0084
    12: 106 a1/2   -> 107 a1/2      0.0084
    12:  99 a1/2   -> 114 a1/2      0.0032
    12: 100 a1/2   -> 113 a1/2      0.0032
    12: 100 a1/2   -> 112 a1/2      0.0028
    12:  99 a1/2   -> 111 a1/2      0.0028
    12:  93 a1/2   -> 111 a1/2      0.0023
    12:  94 a1/2   -> 112 a1/2      0.0023
    12: 100 a1/2   -> 108 a1/2      0.0009
    12:  99 a1/2   -> 107 a1/2      0.0009


    13: 106 a1/2   -> 111 a1/2      0.2963
    13: 105 a1/2   -> 112 a1/2      0.2955
    13: 105 a1/2   -> 111 a1/2      0.0656
    13: 106 a1/2   -> 112 a1/2      0.0654
    13: 105 a1/2   -> 113 a1/2      0.0647
    13: 106 a1/2   -> 114 a1/2      0.0646
    13: 105 a1/2   -> 108 a1/2      0.0380
    13: 106 a1/2   -> 107 a1/2      0.0380
    13: 106 a1/2   -> 113 a1/2      0.0144
    13: 105 a1/2   -> 114 a1/2      0.0143
    13: 105 a1/2   -> 107 a1/2      0.0084
    13: 106 a1/2   -> 108 a1/2      0.0084
    13:  99 a1/2   -> 113 a1/2      0.0032
    13: 100 a1/2   -> 114 a1/2      0.0032
    13: 100 a1/2   -> 111 a1/2      0.0028
    13:  99 a1/2   -> 112 a1/2      0.0027
    13:  94 a1/2   -> 111 a1/2      0.0023
    13:  93 a1/2   -> 112 a1/2      0.0023
    13:  99 a1/2   -> 108 a1/2      0.0010
    13: 100 a1/2   -> 107 a1/2      0.0010


    14: 102 a1/2   -> 107 a1/2      0.3465
    14: 101 a1/2   -> 108 a1/2      0.3465
    14: 102 a1/2   -> 108 a1/2      0.1487
    14: 101 a1/2   -> 107 a1/2      0.1487
    14: 106 a1/2   -> 109 a1/2      0.0010
    14: 105 a1/2   -> 110 a1/2      0.0010
    14:  92 a1/2   -> 107 a1/2      0.0007
    14:  91 a1/2   -> 108 a1/2      0.0007
    14: 100 a1/2   -> 109 a1/2      0.0005
    14:  99 a1/2   -> 110 a1/2      0.0005
    14: 106 a1/2   -> 110 a1/2      0.0004
    14: 105 a1/2   -> 109 a1/2      0.0004
    14:  91 a1/2   -> 107 a1/2      0.0003
    14:  92 a1/2   -> 108 a1/2      0.0003
    14:  99 a1/2   -> 116 a1/2      0.0003
    14: 100 a1/2   -> 115 a1/2      0.0003
    14: 103 a1/2   -> 117 a1/2      0.0002
    14: 104 a1/2   -> 118 a1/2      0.0002
    14: 100 a1/2   -> 110 a1/2      0.0002
    14: 102 a1/2   -> 114 a1/2      0.0002


    15: 102 a1/2   -> 108 a1/2      0.3465
    15: 101 a1/2   -> 107 a1/2      0.3465
    15: 101 a1/2   -> 108 a1/2      0.1487
    15: 102 a1/2   -> 107 a1/2      0.1487
    15: 105 a1/2   -> 109 a1/2      0.0010
    15: 106 a1/2   -> 110 a1/2      0.0010
    15:  91 a1/2   -> 107 a1/2      0.0007
    15:  92 a1/2   -> 108 a1/2      0.0007
    15:  99 a1/2   -> 109 a1/2      0.0005
    15: 100 a1/2   -> 110 a1/2      0.0005
    15: 106 a1/2   -> 109 a1/2      0.0005
    15: 105 a1/2   -> 110 a1/2      0.0004
    15:  91 a1/2   -> 108 a1/2      0.0003
    15:  92 a1/2   -> 107 a1/2      0.0003
    15:  99 a1/2   -> 115 a1/2      0.0003
    15: 100 a1/2   -> 116 a1/2      0.0003
    15: 104 a1/2   -> 117 a1/2      0.0002
    15: 103 a1/2   -> 118 a1/2      0.0002
    15: 101 a1/2   -> 114 a1/2      0.0002
    15: 102 a1/2   -> 113 a1/2      0.0002


    16: 105 a1/2   -> 114 a1/2      0.2840
    16: 106 a1/2   -> 113 a1/2      0.2839
    16: 106 a1/2   -> 110 a1/2      0.0917
    16: 105 a1/2   -> 109 a1/2      0.0916
    16:  99 a1/2   -> 107 a1/2      0.0638
    16: 100 a1/2   -> 108 a1/2      0.0625
    16: 105 a1/2   -> 113 a1/2      0.0249
    16: 106 a1/2   -> 114 a1/2      0.0248
    16: 105 a1/2   -> 110 a1/2      0.0083
    16: 106 a1/2   -> 109 a1/2      0.0083
    16:  99 a1/2   -> 108 a1/2      0.0056
    16: 100 a1/2   -> 107 a1/2      0.0054
    16: 101 a1/2   -> 111 a1/2      0.0046
    16: 102 a1/2   -> 112 a1/2      0.0046
    16: 105 a1/2   -> 107 a1/2      0.0045
    16: 106 a1/2   -> 108 a1/2      0.0044
    16: 100 a1/2   -> 113 a1/2      0.0036
    16:  99 a1/2   -> 114 a1/2      0.0036
    16: 101 a1/2   -> 115 a1/2      0.0026
    16: 102 a1/2   -> 116 a1/2      0.0026
 

 All SPIN-POLARIZED excitation energies

 no.     E/a.u.        E/eV      f           tau/s        Symmetry
 ------------------------------------------------------------------
   1:     0.06423      1.74772   0.7523E-12               A           
   2:     0.06425      1.74833   0.2759E-11               A           
   3:     0.07038      1.91507   0.1310E-11               A           
   4:     0.07038      1.91507   0.1135E-11               A           
   5:     0.07749      2.10856   0.6831E-11               A           
   6:     0.07749      2.10856   0.2248E-10               A           
   7:     0.08608      2.34224   0.2887E-10               A           
   8:     0.08630      2.34827   0.1847E-09    22.63      A           
   9:     0.09449      2.57123   0.8510E-07   0.4096E-01  A           
  10:     0.10027      2.72854   0.1778E-08    1.741      A           
  11:     0.10027      2.72855   0.1462E-08    2.117      A           
  12:     0.10936      2.97578   0.1376E-08    1.891      A           
  13:     0.10936      2.97579   0.5388E-08   0.4830      A           
  14:     0.12596      3.42749   0.3601E-09    5.448      A           
  15:     0.12596      3.42749   0.8867E-10               A           
  16:     0.12827      3.49047   0.5893E-08   0.3210      A           

 tau: electric dipole radiative lifetime (in seconds)

 Unrelaxed approximate excited state dipole moments

 no.       E/eV     Excited state dipole moment (Debye)   Symmetry
 ------------------------------------------------------------------
   1:      1.74772    -0.00000     0.00000    -0.33026    A
   2:      1.74833    -0.00000     0.00000    -0.33026    A
   3:      1.91507    -0.00000     0.00000    -0.33026    A
   4:      1.91507    -0.00000     0.00000    -0.33026    A
   5:      2.10856     0.00000     0.00000    -0.33026    A
   6:      2.10856    -0.00000    -0.00000    -0.33025    A
   7:      2.34224    -0.00000     0.00000    -0.33025    A
   8:      2.34827    -0.00000    -0.00000    -0.33025    A
   9:      2.57123    -0.00000     0.00000    -0.33026    A
  10:      2.72854    -0.00000     0.00000    -0.33025    A
  11:      2.72855    -0.00000     0.00000    -0.33025    A
  12:      2.97578    -0.00000     0.00000    -0.33026    A
  13:      2.97579    -0.00000     0.00000    -0.33026    A
  14:      3.42749    -0.00004     0.00000    -0.33025    A
  15:      3.42749    -0.00004     0.00000    -0.33025    A
  16:      3.49047    -0.00001     0.00000    -0.33026    A


 Normal termination of EXCITATION program part





 =======================================================================
 Electrostatic potential at the Nuclei due to electrons and other nuclei
 =======================================================================
  
         Atom                  Potential
         ----                  ---------
     1)   U                 807.07291939
     2)   O                  21.87026713
     3)   O                  21.87026723
 Mulliken charges used for AMS results%charges...


    =====================
     CALCULATION RESULTS
    =====================

Energy (hartree)           -92.26950681


--------------
Atomic charges
--------------
  Index   Atom    Charge
      1      U    2.6436
      2      O   -0.3218
      3      O   -0.3218


Dipole moment vector    (Debye):     0.00000292    0.00000012   -0.33025912
              magnitude (Debye):     0.33025912


AMS application finished. Exiting.
NORMAL TERMINATION
     Total cpu time:   14607.87
  Total system time:    2925.42
 Total elapsed time:   17531.80
