 Entering Gaussian System, Link 0=/home/pcmt/gaussian/g16.C.01/g16/g16
 AtFile(1): /home/vallet/basis.gaussian/U-ECP60MWB_SEG
 AtFile(1): /home/vallet/basis.gaussian/U-ECP60MWB
 Initial command:
 /home/pcmt/gaussian/g16.C.01/g16/l1.exe "/state/partition2/vallet/930291.phlam-s-sakura/Gau-149678.inp" -scrdir="/state/partition2/vallet/930291.phlam-s-sakura/"
 Entering Link 1 = /home/pcmt/gaussian/g16.C.01/g16/l1.exe PID=    149679.
  
 Copyright (c) 1988-2019, Gaussian, Inc.  All Rights Reserved.
  
 This is part of the Gaussian(R) 16 program.  It is based on
 the Gaussian(R) 09 system (copyright 2009, Gaussian, Inc.),
 the Gaussian(R) 03 system (copyright 2003, Gaussian, Inc.),
 the Gaussian(R) 98 system (copyright 1998, Gaussian, Inc.),
 the Gaussian(R) 94 system (copyright 1995, Gaussian, Inc.),
 the Gaussian 92(TM) system (copyright 1992, Gaussian, Inc.),
 the Gaussian 90(TM) system (copyright 1990, Gaussian, Inc.),
 the Gaussian 88(TM) system (copyright 1988, Gaussian, Inc.),
 the Gaussian 86(TM) system (copyright 1986, Carnegie Mellon
 University), and the Gaussian 82(TM) system (copyright 1983,
 Carnegie Mellon University). Gaussian is a federally registered
 trademark of Gaussian, Inc.
  
 This software contains proprietary and confidential information,
 including trade secrets, belonging to Gaussian, Inc.
  
 This software is provided under written license and may be
 used, copied, transmitted, or stored only in accord with that
 written license.
  
 The following legend is applicable only to US Government
 contracts under FAR:
  
                    RESTRICTED RIGHTS LEGEND
  
 Use, reproduction and disclosure by the US Government is
 subject to restrictions as set forth in subparagraphs (a)
 and (c) of the Commercial Computer Software - Restricted
 Rights clause in FAR 52.227-19.
  
 Gaussian, Inc.
 340 Quinnipiac St., Bldg. 40, Wallingford CT 06492
  
  
 ---------------------------------------------------------------
 Warning -- This program may not be used in any manner that
 competes with the business of Gaussian, Inc. or will provide
 assistance to any competitor of Gaussian, Inc.  The licensee
 of this program is prohibited from giving any competitor of
 Gaussian, Inc. access to this program.  By using this program,
 the user acknowledges that Gaussian, Inc. is engaged in the
 business of creating and licensing software in the field of
 computational chemistry and represents and warrants to the
 licensee that it is not a competitor of Gaussian, Inc. and that
 it will not use this program in any manner prohibited above.
 ---------------------------------------------------------------
  

 Cite this work as:
 Gaussian 16, Revision C.01,
 M. J. Frisch, G. W. Trucks, H. B. Schlegel, G. E. Scuseria, 
 M. A. Robb, J. R. Cheeseman, G. Scalmani, V. Barone, 
 G. A. Petersson, H. Nakatsuji, X. Li, M. Caricato, A. V. Marenich, 
 J. Bloino, B. G. Janesko, R. Gomperts, B. Mennucci, H. P. Hratchian, 
 J. V. Ortiz, A. F. Izmaylov, J. L. Sonnenberg, D. Williams-Young, 
 F. Ding, F. Lipparini, F. Egidi, J. Goings, B. Peng, A. Petrone, 
 T. Henderson, D. Ranasinghe, V. G. Zakrzewski, J. Gao, N. Rega, 
 G. Zheng, W. Liang, M. Hada, M. Ehara, K. Toyota, R. Fukuda, 
 J. Hasegawa, M. Ishida, T. Nakajima, Y. Honda, O. Kitao, H. Nakai, 
 T. Vreven, K. Throssell, J. A. Montgomery, Jr., J. E. Peralta, 
 F. Ogliaro, M. J. Bearpark, J. J. Heyd, E. N. Brothers, K. N. Kudin, 
 V. N. Staroverov, T. A. Keith, R. Kobayashi, J. Normand, 
 K. Raghavachari, A. P. Rendell, J. C. Burant, S. S. Iyengar, 
 J. Tomasi, M. Cossi, J. M. Millam, M. Klene, C. Adamo, R. Cammi, 
 J. W. Ochterski, R. L. Martin, K. Morokuma, O. Farkas, 
 J. B. Foresman, and D. J. Fox, Gaussian, Inc., Wallingford CT, 2019.
 
 ******************************************
 Gaussian 16:  ES64L-G16RevC.01  3-Jul-2019
                 1-Mar-2023 
 ******************************************
 %mem=4000Mb
 %NProc=4
 Will use up to    4 processors via shared memory.
 %oldchk=gs-uo2cl2.pbe0-d3.freq.chk
 %chk=gs-uo2_cl2.mp2.sp.chk
 Copying data from "gs-uo2cl2.pbe0-d3.freq.chk" to current chk file "gs-uo2_cl2.mp2.sp.chk"
 IOpt=  2 FromEx=T IUOpen= 4 IOptOp= 5 NList=   0 IFRang= 0 IUIn= 4 IUOut= 2.
 ----------------------------------------------------------------------
 #p MP2(MaxDisk=500Gb, Window=(22,0))/GEN GFInput GFPrint 5D 7F IOP(6/7
 =3, 4/69=2, 6/10=1) Pseudo=Read Symm=(Loose) Int=(UltraFine) Guess=(Ch
 eckPoint) Scf=(NoVarAcc,MaxCycle=100,conver=8) Geom=(CheckPoint) Symme
 try=Loose
 ----------------------------------------------------------------------
 1/29=2,38=1,172=1/1;
 2/12=2,17=2,18=2,40=1/2;
 3/5=7,8=11,11=9,14=-4,16=1,17=8,24=110,25=1,30=1,75=-5,116=-2/1,2,3;
 4/5=1,69=2/1;
 5/5=2,6=8,7=100,38=6/2;
 8/10=91,37=22/1;
 9/16=-3/6;
 6/7=3,8=2,9=2,10=1/1;
 99/5=1,9=1/99;
 Leave Link    1 at Wed Mar  1 23:46:09 2023, MaxMem=   524288000 cpu:               0.3 elap:               0.1
 (Enter /home/pcmt/gaussian/g16.C.01/g16/l101.exe)
 -------------------------------------------------------
 [UO2Cl2-bent] - SP MP2 calculation at the PBE0 geometry
 -------------------------------------------------------
 Structure from the checkpoint file:  "gs-uo2_cl2.mp2.sp.chk"
 Charge =  0 Multiplicity = 1
 Redundant internal coordinates found in file.  (old form).
 U,0,0.,0.2485734008,0.
 O,0,-1.7216134772,0.450053995,0.
 O,0,1.7216134772,0.450053995,0.
 Cl,0,0.,-1.2218361514,-2.030575914
 Cl,0,0.,-1.2218361514,2.030575914
 Recover connectivity data from disk.
 ITRead=  0  0  0  0  0
 MicOpt= -1 -1 -1 -1 -1
                           ----------------------------
                           !    Current Parameters    !
                           ! (Angstroms and Degrees)  !
 --------------------------                            --------------------------
 ! Name  Definition              Value                                          !
 --------------------------------------------------------------------------------
 ! R1    R(1,2)                  1.7334                                         !
 ! R2    R(1,3)                  1.7334                                         !
 ! R3    R(1,4)                  2.5071                                         !
 ! R4    R(1,5)                  2.5071                                         !
 ! A1    A(2,1,4)               93.9091                                         !
 ! A2    A(2,1,5)               93.9091                                         !
 ! A3    A(3,1,4)               93.9091                                         !
 ! A4    A(3,1,5)               93.9091                                         !
 ! A5    A(4,1,5)              108.1808                                         !
 ! A6    L(2,1,3,4,-1)         187.8182                                         !
 ! A7    L(2,1,3,4,-2)         169.1705                                         !
 ! D1    D(2,1,5,4)             95.4148                                         !
 ! D2    D(3,1,5,4)            -95.4148                                         !
 --------------------------------------------------------------------------------
 NAtoms=      5 NQM=        5 NQMF=       0 NMMI=      0 NMMIF=      0
                NMic=       0 NMicF=      0.
                    Isotopes and Nuclear Properties:
 (Nuclear quadrupole moments (NQMom) in fm**2, nuclear magnetic moments (NMagM)
  in nuclear magnetons)

  Atom         1           2           3           4           5
 IAtWgt=         238          16          16          35          35
 AtmWgt= 238.0508000  15.9949146  15.9949146  34.9688527  34.9688527
 NucSpn=           0           0           0           3           3
 AtZEff=   0.0000000   5.6000000   5.6000000  14.2400000  14.2400000
 NQMom=    0.0000000   0.0000000   0.0000000  -8.1650000  -8.1650000
 NMagM=    0.0000000   0.0000000   0.0000000   0.8218740   0.8218740
 AtZNuc=  92.0000000   8.0000000   8.0000000  17.0000000  17.0000000
 Leave Link  101 at Wed Mar  1 23:46:09 2023, MaxMem=   524288000 cpu:               0.5 elap:               0.3
 (Enter /home/pcmt/gaussian/g16.C.01/g16/l202.exe)
                          Input orientation:                          
 ---------------------------------------------------------------------
 Center     Atomic      Atomic             Coordinates (Angstroms)
 Number     Number       Type             X           Y           Z
 ---------------------------------------------------------------------
      1         92           0        0.000000    0.248573   -0.000000
      2          8           0       -1.721613    0.450054   -0.000000
      3          8           0        1.721613    0.450054    0.000000
      4         17           0       -0.000000   -1.221836   -2.030576
      5         17           0       -0.000000   -1.221836    2.030576
 ---------------------------------------------------------------------
                    Distance matrix (angstroms):
                    1          2          3          4          5
     1  U    0.000000
     2  O    1.733363   0.000000
     3  O    1.733363   3.443227   0.000000
     4  Cl   2.507059   3.143630   3.143630   0.000000
     5  Cl   2.507059   3.143630   3.143630   4.061152   0.000000
 Stoichiometry    Cl2O2U
 Framework group  C2V[C2(U),SGV(O2),SGV'(Cl2)]
 Deg. of freedom     4
 Full point group                 C2V     NOp   4
 RotChk:  IX=0 Diff= 9.77D-15
 Largest Abelian subgroup         C2V     NOp   4
 Largest concise Abelian subgroup C2V     NOp   4
                         Standard orientation:                         
 ---------------------------------------------------------------------
 Center     Atomic      Atomic             Coordinates (Angstroms)
 Number     Number       Type             X           Y           Z
 ---------------------------------------------------------------------
      1         92           0        0.000000    0.000000    0.329368
      2          8           0        0.000000    1.721613    0.530848
      3          8           0       -0.000000   -1.721613    0.530848
      4         17           0        2.030576   -0.000000   -1.141042
      5         17           0       -2.030576    0.000000   -1.141042
 ---------------------------------------------------------------------
 Rotational constants (GHZ):           2.2971953           1.3188863           1.2220453
 Leave Link  202 at Wed Mar  1 23:46:10 2023, MaxMem=   524288000 cpu:               0.1 elap:               0.1
 (Enter /home/pcmt/gaussian/g16.C.01/g16/l301.exe)
 General basis read from cards:  (5D, 7F)
 Centers:       1
 S 3 1.00
     Exponent=  1.2098082000D+04 Coefficients=  1.0200000000D-04
     Exponent=  1.8337573000D+03 Coefficients=  7.7100000000D-04
     Exponent=  3.5168632000D+02 Coefficients=  2.9690000000D-03
 S 1 1.00
     Exponent=  1.0431426000D+02 Coefficients=  1.0000000000D+00
 S 3 1.00
     Exponent=  6.0905822000D+01 Coefficients=  4.9868000000D-02
     Exponent=  3.5515086000D+01 Coefficients= -2.4531300000D-01
     Exponent=  2.0891227000D+01 Coefficients=  7.2384700000D-01
 S 1 1.00
     Exponent=  1.0184647000D+01 Coefficients=  1.0000000000D+00
 S 1 1.00
     Exponent=  2.8518510000D+00 Coefficients=  1.0000000000D+00
 S 1 1.00
     Exponent=  1.5316160000D+00 Coefficients=  1.0000000000D+00
 S 1 1.00
     Exponent=  6.1620300000D-01 Coefficients=  1.0000000000D+00
 S 1 1.00
     Exponent=  2.7949400000D-01 Coefficients=  1.0000000000D+00
 S 1 1.00
     Exponent=  5.7253000000D-02 Coefficients=  1.0000000000D+00
 S 1 1.00
     Exponent=  2.3443000000D-02 Coefficients=  1.0000000000D+00
 P 5 1.00
     Exponent=  2.9068451000D+03 Coefficients=  8.8000000000D-05
     Exponent=  6.9440053000D+02 Coefficients=  7.3200000000D-04
     Exponent=  2.2463479000D+02 Coefficients=  3.4140000000D-03
     Exponent=  8.0520526000D+01 Coefficients=  1.1099000000D-02
     Exponent=  2.4080211000D+01 Coefficients=  2.5216000000D-02
 P 1 1.00
     Exponent=  1.4077580000D+01 Coefficients=  1.0000000000D+00
 P 1 1.00
     Exponent=  8.2658460000D+00 Coefficients=  1.0000000000D+00
 P 1 1.00
     Exponent=  3.4236070000D+00 Coefficients=  1.0000000000D+00
 P 1 1.00
     Exponent=  1.7084170000D+00 Coefficients=  1.0000000000D+00
 P 1 1.00
     Exponent=  6.5504600000D-01 Coefficients=  1.0000000000D+00
 P 1 1.00
     Exponent=  2.8375500000D-01 Coefficients=  1.0000000000D+00
 P 1 1.00
     Exponent=  1.0181400000D-01 Coefficients=  1.0000000000D+00
 P 1 1.00
     Exponent=  3.0535000000D-02 Coefficients=  1.0000000000D+00
 D 6 1.00
     Exponent=  4.4901953000D+02 Coefficients=  5.0000000000D-05
     Exponent=  1.5635695000D+02 Coefficients=  3.2200000000D-04
     Exponent=  6.0242439000D+01 Coefficients=  1.7770000000D-03
     Exponent=  1.7772317000D+01 Coefficients=  2.5385000000D-02
     Exponent=  1.0454304000D+01 Coefficients= -8.9378000000D-02
     Exponent=  3.5834330000D+00 Coefficients=  4.4479900000D-01
 D 1 1.00
     Exponent=  1.7637240000D+00 Coefficients=  1.0000000000D+00
 D 1 1.00
     Exponent=  7.8403000000D-01 Coefficients=  1.0000000000D+00
 D 1 1.00
     Exponent=  2.7612700000D-01 Coefficients=  1.0000000000D+00
 D 1 1.00
     Exponent=  8.6980000000D-02 Coefficients=  1.0000000000D+00
 F 5 1.00
     Exponent=  1.0528793000D+02 Coefficients=  2.2800000000D-04
     Exponent=  3.5101181000D+01 Coefficients=  2.3080000000D-03
     Exponent=  1.4564138000D+01 Coefficients=  9.2530000000D-03
     Exponent=  4.6518850000D+00 Coefficients=  1.3694900000D-01
     Exponent=  2.2559730000D+00 Coefficients=  3.3980100000D-01
 F 1 1.00
     Exponent=  1.0102740000D+00 Coefficients=  1.0000000000D+00
 F 1 1.00
     Exponent=  4.1168000000D-01 Coefficients=  1.0000000000D+00
 F 1 1.00
     Exponent=  1.4412000000D-01 Coefficients=  1.0000000000D+00
 G 4 1.00
     Exponent=  1.0528793000D+02 Coefficients=  1.3700000000D-04
     Exponent=  3.5101181000D+01 Coefficients=  1.8310000000D-03
     Exponent=  1.4564138000D+01 Coefficients=  1.9940000000D-02
     Exponent=  4.6518850000D+00 Coefficients=  1.1075800000D-01
 G 1 1.00
     Exponent=  2.2559730000D+00 Coefficients=  1.0000000000D+00
 G 1 1.00
     Exponent=  1.0102740000D+00 Coefficients=  1.0000000000D+00
 ****
 Centers:       4      5
 Def2TZVP
 ****
 Centers:       2      3
 Def2TZVP
 ****
 ======================================================================================================
                                       Pseudopotential Parameters
 ======================================================================================================
  Center     Atomic      Valence      Angular      Power
  Number     Number     Electrons     Momentum     of R      Exponent        Coefficient   SO-Coeffient
 ======================================================================================================
    1         92           32
                                      H and up 
                                                     2        1.0000000        0.00000000    0.00000000
                                      S - H
                                                     2       16.4140387      536.51662778    0.00000000
                                      P - H
                                                     2        9.0605561      169.54492465    0.00000000
                                      D - H
                                                     2        8.8318320      142.61559837    0.00000000
                                      F - H
                                                     2        7.0185163       60.39307602    0.00000000
                                      G - H
                                                     2       12.8040884      -60.12998958    0.00000000
    2          8
                                   No pseudopotential on this center.
    3          8
                                   No pseudopotential on this center.
    4         17
                                   No pseudopotential on this center.
    5         17
                                   No pseudopotential on this center.
 ======================================================================================================
 Ernie: Thresh=  0.10000D-02 Tol=  0.10000D-05 Strict=F.
 AO basis set in the form of general basis input (Overlap normalization):
      1 0
 S   3 1.00       0.000000000000
      0.1209808200D+05  0.2884168448D-01
      0.1833757300D+04  0.2180092033D+00
      0.3516863200D+03  0.8395192276D+00
 S   3 1.00       0.000000000000
      0.6090582200D+02  0.9338504807D-01
      0.3551508600D+02 -0.4593840999D+00
      0.2089122700D+02  0.1355508280D+01
 S   1 1.00       0.000000000000
      0.1043142600D+03  0.1000000000D+01
 S   1 1.00       0.000000000000
      0.1018464700D+02  0.1000000000D+01
 S   1 1.00       0.000000000000
      0.2851851000D+01  0.1000000000D+01
 S   1 1.00       0.000000000000
      0.1531616000D+01  0.1000000000D+01
 S   1 1.00       0.000000000000
      0.6162030000D+00  0.1000000000D+01
 S   1 1.00       0.000000000000
      0.2794940000D+00  0.1000000000D+01
 S   1 1.00       0.000000000000
      0.5725300000D-01  0.1000000000D+01
 S   1 1.00       0.000000000000
      0.2344300000D-01  0.1000000000D+01
 P   5 1.00       0.000000000000
      0.2906845100D+04  0.2490724940D-02
      0.6944005300D+03  0.2071830291D-01
      0.2246347900D+03  0.9662880620D-01
      0.8052052600D+02  0.3141426831D+00
      0.2408021100D+02  0.7137059101D+00
 P   1 1.00       0.000000000000
      0.1407758000D+02  0.1000000000D+01
 P   1 1.00       0.000000000000
      0.8265846000D+01  0.1000000000D+01
 P   1 1.00       0.000000000000
      0.3423607000D+01  0.1000000000D+01
 P   1 1.00       0.000000000000
      0.1708417000D+01  0.1000000000D+01
 P   1 1.00       0.000000000000
      0.6550460000D+00  0.1000000000D+01
 P   1 1.00       0.000000000000
      0.2837550000D+00  0.1000000000D+01
 P   1 1.00       0.000000000000
      0.1018140000D+00  0.1000000000D+01
 P   1 1.00       0.000000000000
      0.3053500000D-01  0.1000000000D+01
 D   6 1.00       0.000000000000
      0.4490195300D+03  0.1244413406D-03
      0.1563569500D+03  0.8014022332D-03
      0.6024243900D+02  0.4422645243D-02
      0.1777231700D+02  0.6317886860D-01
      0.1045430400D+02 -0.2224463627D+00
      0.3583433000D+01  0.1107027677D+01
 D   1 1.00       0.000000000000
      0.1763724000D+01  0.1000000000D+01
 D   1 1.00       0.000000000000
      0.7840300000D+00  0.1000000000D+01
 D   1 1.00       0.000000000000
      0.2761270000D+00  0.1000000000D+01
 D   1 1.00       0.000000000000
      0.8698000000D-01  0.1000000000D+01
 F   5 1.00       0.000000000000
      0.1052879300D+03  0.5015876177D-03
      0.3510118100D+02  0.5077474656D-02
      0.1456413800D+02  0.2035609748D-01
      0.4651885000D+01  0.3012803625D+00
      0.2255973000D+01  0.7475437460D+00
 F   1 1.00       0.000000000000
      0.1010274000D+01  0.1000000000D+01
 F   1 1.00       0.000000000000
      0.4116800000D+00  0.1000000000D+01
 F   1 1.00       0.000000000000
      0.1441200000D+00  0.1000000000D+01
 G   4 1.00       0.000000000000
      0.1052879300D+03  0.1132460043D-02
      0.3510118100D+02  0.1513528715D-01
      0.1456413800D+02  0.1648266662D+00
      0.4651885000D+01  0.9155402153D+00
 G   1 1.00       0.000000000000
      0.2255973000D+01  0.1000000000D+01
 G   1 1.00       0.000000000000
      0.1010274000D+01  0.1000000000D+01
 ****
      2 0
 S   6 1.00       0.000000000000
      0.2703238263D+05  0.5722733521D-03
      0.4052387139D+04  0.4435323349D-02
      0.9223272271D+03  0.2302010771D-01
      0.2612407099D+03  0.9282249067D-01
      0.8535464135D+02  0.2937850001D+00
      0.3103503524D+02  0.6740160450D+00
 S   2 1.00       0.000000000000
      0.1226086073D+02  0.6383993703D+00
      0.4998707601D+01  0.3953458713D+00
 S   1 1.00       0.000000000000
      0.1170310816D+01  0.1000000000D+01
 S   1 1.00       0.000000000000
      0.4647474099D+00  0.1000000000D+01
 S   1 1.00       0.000000000000
      0.1850453636D+00  0.1000000000D+01
 P   4 1.00       0.000000000000
      0.6327495480D+02  0.1201833222D-01
      0.1462704938D+02  0.8300542179D-01
      0.4450122346D+01  0.3199174393D+00
      0.1527579965D+01  0.7071554292D+00
 P   1 1.00       0.000000000000
      0.5293511794D+00  0.1000000000D+01
 P   1 1.00       0.000000000000
      0.1747842127D+00  0.1000000000D+01
 D   1 1.00       0.000000000000
      0.2314000000D+01  0.1000000000D+01
 D   1 1.00       0.000000000000
      0.6450000000D+00  0.1000000000D+01
 F   1 1.00       0.000000000000
      0.1428000000D+01  0.1000000000D+01
 ****
      3 0
 S   6 1.00       0.000000000000
      0.2703238263D+05  0.5722733521D-03
      0.4052387139D+04  0.4435323349D-02
      0.9223272271D+03  0.2302010771D-01
      0.2612407099D+03  0.9282249067D-01
      0.8535464135D+02  0.2937850001D+00
      0.3103503524D+02  0.6740160450D+00
 S   2 1.00       0.000000000000
      0.1226086073D+02  0.6383993703D+00
      0.4998707601D+01  0.3953458713D+00
 S   1 1.00       0.000000000000
      0.1170310816D+01  0.1000000000D+01
 S   1 1.00       0.000000000000
      0.4647474099D+00  0.1000000000D+01
 S   1 1.00       0.000000000000
      0.1850453636D+00  0.1000000000D+01
 P   4 1.00       0.000000000000
      0.6327495480D+02  0.1201833222D-01
      0.1462704938D+02  0.8300542179D-01
      0.4450122346D+01  0.3199174393D+00
      0.1527579965D+01  0.7071554292D+00
 P   1 1.00       0.000000000000
      0.5293511794D+00  0.1000000000D+01
 P   1 1.00       0.000000000000
      0.1747842127D+00  0.1000000000D+01
 D   1 1.00       0.000000000000
      0.2314000000D+01  0.1000000000D+01
 D   1 1.00       0.000000000000
      0.6450000000D+00  0.1000000000D+01
 F   1 1.00       0.000000000000
      0.1428000000D+01  0.1000000000D+01
 ****
      4 0
 S   7 1.00       0.000000000000
      0.6950799094D+05  0.5145738965D-03
      0.1042615688D+05  0.3978134481D-02
      0.2373233406D+04  0.2045617867D-01
      0.6715642007D+03  0.8014810289D-01
      0.2184199979D+03  0.2345477032D+00
      0.7757224971D+02  0.4454336858D+00
      0.2888881528D+02  0.3546684250D+00
 S   3 1.00       0.000000000000
      0.1271052718D+03  0.1129368805D+00
      0.3933958296D+02  0.4837351421D+00
      0.7674067999D+01 -0.1229229739D+01
 S   2 1.00       0.000000000000
      0.3874562763D+01  0.6729682164D+00
      0.1838583257D+01  0.3495605141D+00
 S   1 1.00       0.000000000000
      0.5022905754D+00  0.1000000000D+01
 S   1 1.00       0.000000000000
      0.1796272342D+00  0.1000000000D+01
 P   5 1.00       0.000000000000
      0.6665042328D+03  0.3350250820D-02
      0.1576424169D+03  0.2676397041D-01
      0.5026252098D+02  0.1236268236D+00
      0.1853607811D+02  0.3584578792D+00
      0.7294053278D+01  0.6167729635D+00
 P   1 1.00       0.000000000000
      0.2943324899D+01  0.1000000000D+01
 P   1 1.00       0.000000000000
      0.1040497082D+01  0.1000000000D+01
 P   1 1.00       0.000000000000
      0.3845641508D+00  0.1000000000D+01
 P   1 1.00       0.000000000000
      0.1306964273D+00  0.1000000000D+01
 D   2 1.00       0.000000000000
      0.4610000000D+01  0.1826583505D+00
      0.1011000000D+01  0.9132917523D+00
 D   1 1.00       0.000000000000
      0.3390000000D+00  0.1000000000D+01
 F   1 1.00       0.000000000000
      0.7060000000D+00  0.1000000000D+01
 ****
      5 0
 S   7 1.00       0.000000000000
      0.6950799094D+05  0.5145738965D-03
      0.1042615688D+05  0.3978134481D-02
      0.2373233406D+04  0.2045617867D-01
      0.6715642007D+03  0.8014810289D-01
      0.2184199979D+03  0.2345477032D+00
      0.7757224971D+02  0.4454336858D+00
      0.2888881528D+02  0.3546684250D+00
 S   3 1.00       0.000000000000
      0.1271052718D+03  0.1129368805D+00
      0.3933958296D+02  0.4837351421D+00
      0.7674067999D+01 -0.1229229739D+01
 S   2 1.00       0.000000000000
      0.3874562763D+01  0.6729682164D+00
      0.1838583257D+01  0.3495605141D+00
 S   1 1.00       0.000000000000
      0.5022905754D+00  0.1000000000D+01
 S   1 1.00       0.000000000000
      0.1796272342D+00  0.1000000000D+01
 P   5 1.00       0.000000000000
      0.6665042328D+03  0.3350250820D-02
      0.1576424169D+03  0.2676397041D-01
      0.5026252098D+02  0.1236268236D+00
      0.1853607811D+02  0.3584578792D+00
      0.7294053278D+01  0.6167729635D+00
 P   1 1.00       0.000000000000
      0.2943324899D+01  0.1000000000D+01
 P   1 1.00       0.000000000000
      0.1040497082D+01  0.1000000000D+01
 P   1 1.00       0.000000000000
      0.3845641508D+00  0.1000000000D+01
 P   1 1.00       0.000000000000
      0.1306964273D+00  0.1000000000D+01
 D   2 1.00       0.000000000000
      0.4610000000D+01  0.1826583505D+00
      0.1011000000D+01  0.9132917523D+00
 D   1 1.00       0.000000000000
      0.3390000000D+00  0.1000000000D+01
 F   1 1.00       0.000000000000
      0.7060000000D+00  0.1000000000D+01
 ****

 AO basis set (Overlap normalization):
 Atom U1       Shell     1 S   3     bf    1 -     1          0.000000000000          0.000000000000          0.622415038299
      0.1209808200D+05  0.2884168448D-01
      0.1833757300D+04  0.2180092033D+00
      0.3516863200D+03  0.8395192276D+00
 Atom U1       Shell     2 S   3     bf    2 -     2          0.000000000000          0.000000000000          0.622415038299
      0.6090582200D+02  0.9338504807D-01
      0.3551508600D+02 -0.4593840999D+00
      0.2089122700D+02  0.1355508280D+01
 Atom U1       Shell     3 S   1     bf    3 -     3          0.000000000000          0.000000000000          0.622415038299
      0.1043142600D+03  0.1000000000D+01
 Atom U1       Shell     4 S   1     bf    4 -     4          0.000000000000          0.000000000000          0.622415038299
      0.1018464700D+02  0.1000000000D+01
 Atom U1       Shell     5 S   1     bf    5 -     5          0.000000000000          0.000000000000          0.622415038299
      0.2851851000D+01  0.1000000000D+01
 Atom U1       Shell     6 S   1     bf    6 -     6          0.000000000000          0.000000000000          0.622415038299
      0.1531616000D+01  0.1000000000D+01
 Atom U1       Shell     7 S   1     bf    7 -     7          0.000000000000          0.000000000000          0.622415038299
      0.6162030000D+00  0.1000000000D+01
 Atom U1       Shell     8 S   1     bf    8 -     8          0.000000000000          0.000000000000          0.622415038299
      0.2794940000D+00  0.1000000000D+01
 Atom U1       Shell     9 S   1     bf    9 -     9          0.000000000000          0.000000000000          0.622415038299
      0.5725300000D-01  0.1000000000D+01
 Atom U1       Shell    10 S   1     bf   10 -    10          0.000000000000          0.000000000000          0.622415038299
      0.2344300000D-01  0.1000000000D+01
 Atom U1       Shell    11 P   5     bf   11 -    13          0.000000000000          0.000000000000          0.622415038299
      0.2906845100D+04  0.2490724940D-02
      0.6944005300D+03  0.2071830291D-01
      0.2246347900D+03  0.9662880620D-01
      0.8052052600D+02  0.3141426831D+00
      0.2408021100D+02  0.7137059101D+00
 Atom U1       Shell    12 P   1     bf   14 -    16          0.000000000000          0.000000000000          0.622415038299
      0.1407758000D+02  0.1000000000D+01
 Atom U1       Shell    13 P   1     bf   17 -    19          0.000000000000          0.000000000000          0.622415038299
      0.8265846000D+01  0.1000000000D+01
 Atom U1       Shell    14 P   1     bf   20 -    22          0.000000000000          0.000000000000          0.622415038299
      0.3423607000D+01  0.1000000000D+01
 Atom U1       Shell    15 P   1     bf   23 -    25          0.000000000000          0.000000000000          0.622415038299
      0.1708417000D+01  0.1000000000D+01
 Atom U1       Shell    16 P   1     bf   26 -    28          0.000000000000          0.000000000000          0.622415038299
      0.6550460000D+00  0.1000000000D+01
 Atom U1       Shell    17 P   1     bf   29 -    31          0.000000000000          0.000000000000          0.622415038299
      0.2837550000D+00  0.1000000000D+01
 Atom U1       Shell    18 P   1     bf   32 -    34          0.000000000000          0.000000000000          0.622415038299
      0.1018140000D+00  0.1000000000D+01
 Atom U1       Shell    19 P   1     bf   35 -    37          0.000000000000          0.000000000000          0.622415038299
      0.3053500000D-01  0.1000000000D+01
 Atom U1       Shell    20 D   6     bf   38 -    42          0.000000000000          0.000000000000          0.622415038299
      0.4490195300D+03  0.1244413406D-03
      0.1563569500D+03  0.8014022332D-03
      0.6024243900D+02  0.4422645243D-02
      0.1777231700D+02  0.6317886860D-01
      0.1045430400D+02 -0.2224463627D+00
      0.3583433000D+01  0.1107027677D+01
 Atom U1       Shell    21 D   1     bf   43 -    47          0.000000000000          0.000000000000          0.622415038299
      0.1763724000D+01  0.1000000000D+01
 Atom U1       Shell    22 D   1     bf   48 -    52          0.000000000000          0.000000000000          0.622415038299
      0.7840300000D+00  0.1000000000D+01
 Atom U1       Shell    23 D   1     bf   53 -    57          0.000000000000          0.000000000000          0.622415038299
      0.2761270000D+00  0.1000000000D+01
 Atom U1       Shell    24 D   1     bf   58 -    62          0.000000000000          0.000000000000          0.622415038299
      0.8698000000D-01  0.1000000000D+01
 Atom U1       Shell    25 F   5     bf   63 -    69          0.000000000000          0.000000000000          0.622415038299
      0.1052879300D+03  0.5015876177D-03
      0.3510118100D+02  0.5077474656D-02
      0.1456413800D+02  0.2035609748D-01
      0.4651885000D+01  0.3012803625D+00
      0.2255973000D+01  0.7475437460D+00
 Atom U1       Shell    26 F   1     bf   70 -    76          0.000000000000          0.000000000000          0.622415038299
      0.1010274000D+01  0.1000000000D+01
 Atom U1       Shell    27 F   1     bf   77 -    83          0.000000000000          0.000000000000          0.622415038299
      0.4116800000D+00  0.1000000000D+01
 Atom U1       Shell    28 F   1     bf   84 -    90          0.000000000000          0.000000000000          0.622415038299
      0.1441200000D+00  0.1000000000D+01
 Atom U1       Shell    29 G   4     bf   91 -    99          0.000000000000          0.000000000000          0.622415038299
      0.1052879300D+03  0.1132460043D-02
      0.3510118100D+02  0.1513528715D-01
      0.1456413800D+02  0.1648266662D+00
      0.4651885000D+01  0.9155402153D+00
 Atom U1       Shell    30 G   1     bf  100 -   108          0.000000000000          0.000000000000          0.622415038299
      0.2255973000D+01  0.1000000000D+01
 Atom U1       Shell    31 G   1     bf  109 -   117          0.000000000000          0.000000000000          0.622415038299
      0.1010274000D+01  0.1000000000D+01
 Atom O2       Shell    32 S   6     bf  118 -   118          0.000000000000          3.253377964249          1.003158180661
      0.2703238263D+05  0.5722733521D-03
      0.4052387139D+04  0.4435323349D-02
      0.9223272271D+03  0.2302010771D-01
      0.2612407099D+03  0.9282249067D-01
      0.8535464135D+02  0.2937850001D+00
      0.3103503524D+02  0.6740160450D+00
 Atom O2       Shell    33 S   2     bf  119 -   119          0.000000000000          3.253377964249          1.003158180661
      0.1226086073D+02  0.6383993703D+00
      0.4998707601D+01  0.3953458713D+00
 Atom O2       Shell    34 S   1     bf  120 -   120          0.000000000000          3.253377964249          1.003158180661
      0.1170310816D+01  0.1000000000D+01
 Atom O2       Shell    35 S   1     bf  121 -   121          0.000000000000          3.253377964249          1.003158180661
      0.4647474099D+00  0.1000000000D+01
 Atom O2       Shell    36 S   1     bf  122 -   122          0.000000000000          3.253377964249          1.003158180661
      0.1850453636D+00  0.1000000000D+01
 Atom O2       Shell    37 P   4     bf  123 -   125          0.000000000000          3.253377964249          1.003158180661
      0.6327495480D+02  0.1201833222D-01
      0.1462704938D+02  0.8300542179D-01
      0.4450122346D+01  0.3199174393D+00
      0.1527579965D+01  0.7071554292D+00
 Atom O2       Shell    38 P   1     bf  126 -   128          0.000000000000          3.253377964249          1.003158180661
      0.5293511794D+00  0.1000000000D+01
 Atom O2       Shell    39 P   1     bf  129 -   131          0.000000000000          3.253377964249          1.003158180661
      0.1747842127D+00  0.1000000000D+01
 Atom O2       Shell    40 D   1     bf  132 -   136          0.000000000000          3.253377964249          1.003158180661
      0.2314000000D+01  0.1000000000D+01
 Atom O2       Shell    41 D   1     bf  137 -   141          0.000000000000          3.253377964249          1.003158180661
      0.6450000000D+00  0.1000000000D+01
 Atom O2       Shell    42 F   1     bf  142 -   148          0.000000000000          3.253377964249          1.003158180661
      0.1428000000D+01  0.1000000000D+01
 Atom O3       Shell    43 S   6     bf  149 -   149         -0.000000000000         -3.253377964249          1.003158180661
      0.2703238263D+05  0.5722733521D-03
      0.4052387139D+04  0.4435323349D-02
      0.9223272271D+03  0.2302010771D-01
      0.2612407099D+03  0.9282249067D-01
      0.8535464135D+02  0.2937850001D+00
      0.3103503524D+02  0.6740160450D+00
 Atom O3       Shell    44 S   2     bf  150 -   150         -0.000000000000         -3.253377964249          1.003158180661
      0.1226086073D+02  0.6383993703D+00
      0.4998707601D+01  0.3953458713D+00
 Atom O3       Shell    45 S   1     bf  151 -   151         -0.000000000000         -3.253377964249          1.003158180661
      0.1170310816D+01  0.1000000000D+01
 Atom O3       Shell    46 S   1     bf  152 -   152         -0.000000000000         -3.253377964249          1.003158180661
      0.4647474099D+00  0.1000000000D+01
 Atom O3       Shell    47 S   1     bf  153 -   153         -0.000000000000         -3.253377964249          1.003158180661
      0.1850453636D+00  0.1000000000D+01
 Atom O3       Shell    48 P   4     bf  154 -   156         -0.000000000000         -3.253377964249          1.003158180661
      0.6327495480D+02  0.1201833222D-01
      0.1462704938D+02  0.8300542179D-01
      0.4450122346D+01  0.3199174393D+00
      0.1527579965D+01  0.7071554292D+00
 Atom O3       Shell    49 P   1     bf  157 -   159         -0.000000000000         -3.253377964249          1.003158180661
      0.5293511794D+00  0.1000000000D+01
 Atom O3       Shell    50 P   1     bf  160 -   162         -0.000000000000         -3.253377964249          1.003158180661
      0.1747842127D+00  0.1000000000D+01
 Atom O3       Shell    51 D   1     bf  163 -   167         -0.000000000000         -3.253377964249          1.003158180661
      0.2314000000D+01  0.1000000000D+01
 Atom O3       Shell    52 D   1     bf  168 -   172         -0.000000000000         -3.253377964249          1.003158180661
      0.6450000000D+00  0.1000000000D+01
 Atom O3       Shell    53 F   1     bf  173 -   179         -0.000000000000         -3.253377964249          1.003158180661
      0.1428000000D+01  0.1000000000D+01
 Atom Cl4      Shell    54 S   7     bf  180 -   180          3.837232352519         -0.000000000000         -2.156256306297
      0.6950799094D+05  0.5145738965D-03
      0.1042615688D+05  0.3978134481D-02
      0.2373233406D+04  0.2045617867D-01
      0.6715642007D+03  0.8014810289D-01
      0.2184199979D+03  0.2345477032D+00
      0.7757224971D+02  0.4454336858D+00
      0.2888881528D+02  0.3546684250D+00
 Atom Cl4      Shell    55 S   3     bf  181 -   181          3.837232352519         -0.000000000000         -2.156256306297
      0.1271052718D+03  0.1129368805D+00
      0.3933958296D+02  0.4837351421D+00
      0.7674067999D+01 -0.1229229739D+01
 Atom Cl4      Shell    56 S   2     bf  182 -   182          3.837232352519         -0.000000000000         -2.156256306297
      0.3874562763D+01  0.6729682164D+00
      0.1838583257D+01  0.3495605141D+00
 Atom Cl4      Shell    57 S   1     bf  183 -   183          3.837232352519         -0.000000000000         -2.156256306297
      0.5022905754D+00  0.1000000000D+01
 Atom Cl4      Shell    58 S   1     bf  184 -   184          3.837232352519         -0.000000000000         -2.156256306297
      0.1796272342D+00  0.1000000000D+01
 Atom Cl4      Shell    59 P   5     bf  185 -   187          3.837232352519         -0.000000000000         -2.156256306297
      0.6665042328D+03  0.3350250820D-02
      0.1576424169D+03  0.2676397041D-01
      0.5026252098D+02  0.1236268236D+00
      0.1853607811D+02  0.3584578792D+00
      0.7294053278D+01  0.6167729635D+00
 Atom Cl4      Shell    60 P   1     bf  188 -   190          3.837232352519         -0.000000000000         -2.156256306297
      0.2943324899D+01  0.1000000000D+01
 Atom Cl4      Shell    61 P   1     bf  191 -   193          3.837232352519         -0.000000000000         -2.156256306297
      0.1040497082D+01  0.1000000000D+01
 Atom Cl4      Shell    62 P   1     bf  194 -   196          3.837232352519         -0.000000000000         -2.156256306297
      0.3845641508D+00  0.1000000000D+01
 Atom Cl4      Shell    63 P   1     bf  197 -   199          3.837232352519         -0.000000000000         -2.156256306297
      0.1306964273D+00  0.1000000000D+01
 Atom Cl4      Shell    64 D   2     bf  200 -   204          3.837232352519         -0.000000000000         -2.156256306297
      0.4610000000D+01  0.1826583505D+00
      0.1011000000D+01  0.9132917523D+00
 Atom Cl4      Shell    65 D   1     bf  205 -   209          3.837232352519         -0.000000000000         -2.156256306297
      0.3390000000D+00  0.1000000000D+01
 Atom Cl4      Shell    66 F   1     bf  210 -   216          3.837232352519         -0.000000000000         -2.156256306297
      0.7060000000D+00  0.1000000000D+01
 Atom Cl5      Shell    67 S   7     bf  217 -   217         -3.837232352519          0.000000000000         -2.156256306297
      0.6950799094D+05  0.5145738965D-03
      0.1042615688D+05  0.3978134481D-02
      0.2373233406D+04  0.2045617867D-01
      0.6715642007D+03  0.8014810289D-01
      0.2184199979D+03  0.2345477032D+00
      0.7757224971D+02  0.4454336858D+00
      0.2888881528D+02  0.3546684250D+00
 Atom Cl5      Shell    68 S   3     bf  218 -   218         -3.837232352519          0.000000000000         -2.156256306297
      0.1271052718D+03  0.1129368805D+00
      0.3933958296D+02  0.4837351421D+00
      0.7674067999D+01 -0.1229229739D+01
 Atom Cl5      Shell    69 S   2     bf  219 -   219         -3.837232352519          0.000000000000         -2.156256306297
      0.3874562763D+01  0.6729682164D+00
      0.1838583257D+01  0.3495605141D+00
 Atom Cl5      Shell    70 S   1     bf  220 -   220         -3.837232352519          0.000000000000         -2.156256306297
      0.5022905754D+00  0.1000000000D+01
 Atom Cl5      Shell    71 S   1     bf  221 -   221         -3.837232352519          0.000000000000         -2.156256306297
      0.1796272342D+00  0.1000000000D+01
 Atom Cl5      Shell    72 P   5     bf  222 -   224         -3.837232352519          0.000000000000         -2.156256306297
      0.6665042328D+03  0.3350250820D-02
      0.1576424169D+03  0.2676397041D-01
      0.5026252098D+02  0.1236268236D+00
      0.1853607811D+02  0.3584578792D+00
      0.7294053278D+01  0.6167729635D+00
 Atom Cl5      Shell    73 P   1     bf  225 -   227         -3.837232352519          0.000000000000         -2.156256306297
      0.2943324899D+01  0.1000000000D+01
 Atom Cl5      Shell    74 P   1     bf  228 -   230         -3.837232352519          0.000000000000         -2.156256306297
      0.1040497082D+01  0.1000000000D+01
 Atom Cl5      Shell    75 P   1     bf  231 -   233         -3.837232352519          0.000000000000         -2.156256306297
      0.3845641508D+00  0.1000000000D+01
 Atom Cl5      Shell    76 P   1     bf  234 -   236         -3.837232352519          0.000000000000         -2.156256306297
      0.1306964273D+00  0.1000000000D+01
 Atom Cl5      Shell    77 D   2     bf  237 -   241         -3.837232352519          0.000000000000         -2.156256306297
      0.4610000000D+01  0.1826583505D+00
      0.1011000000D+01  0.9132917523D+00
 Atom Cl5      Shell    78 D   1     bf  242 -   246         -3.837232352519          0.000000000000         -2.156256306297
      0.3390000000D+00  0.1000000000D+01
 Atom Cl5      Shell    79 F   1     bf  247 -   253         -3.837232352519          0.000000000000         -2.156256306297
      0.7060000000D+00  0.1000000000D+01
 Effective core potential in the form of general ECP input:
      1 0
 U1-ECP   5 60
 H component
  1
  2        1.0000000        0.00000000    0.00000000
 S-H projection
  1
  2       16.4140387      536.51662778    0.00000000
 P-H projection
  1
  2        9.0605561      169.54492465    0.00000000
 D-H projection
  1
  2        8.8318320      142.61559837    0.00000000
 F-H projection
  1
  2        7.0185163       60.39307602    0.00000000
 G-H projection
  1
  2       12.8040884      -60.12998958    0.00000000
 
 There are   118 symmetry adapted cartesian basis functions of A1  symmetry.
 There are    42 symmetry adapted cartesian basis functions of A2  symmetry.
 There are    75 symmetry adapted cartesian basis functions of B1  symmetry.
 There are    73 symmetry adapted cartesian basis functions of B2  symmetry.
 There are    92 symmetry adapted basis functions of A1  symmetry.
 There are    37 symmetry adapted basis functions of A2  symmetry.
 There are    63 symmetry adapted basis functions of B1  symmetry.
 There are    61 symmetry adapted basis functions of B2  symmetry.
   253 basis functions,   523 primitive gaussians,   308 cartesian basis functions
    41 alpha electrons       41 beta electrons
       nuclear repulsion energy       525.0241825471 Hartrees.
 IExCor=    0 DFT=F Ex=HF Corr=None ExCW=0 ScaHFX=  1.000000
 ScaDFX=  1.000000  1.000000  1.000000  1.000000 ScalE2=  1.000000  1.000000
 IRadAn=      5 IRanWt=     -1 IRanGd=            0 ICorTp=0 IEmpDi=  4
 NAtoms=    5 NActive=    5 NUniq=    3 SFac= 2.78D+00 NAtFMM=   60 NAOKFM=F Big=F
 Integral buffers will be    131072 words long.
 Raffenetti 1 integral format.
 Two-electron integral symmetry is turned on.
 Leave Link  301 at Wed Mar  1 23:46:10 2023, MaxMem=   524288000 cpu:               0.3 elap:               0.2
 (Enter /home/pcmt/gaussian/g16.C.01/g16/l302.exe)
 NPDir=0 NMtPBC=     1 NCelOv=     1 NCel=       1 NClECP=     1 NCelD=      1
         NCelK=      1 NCelE2=     1 NClLst=     1 CellRange=     0.0.
 One-electron integrals computed using PRISM.
 One-electron integral symmetry used in STVInt
   4 Symmetry operations used in ECPInt.
 ECPInt:  NShTT=    3160 NPrTT=   10748 LenC2=    3029 LenP2D=    7903.
 LDataN:  DoStor=T MaxTD1= 9 Len=  602
 NBasis=   253 RedAO= T EigKep=  8.23D-04  NBF=    92    37    63    61
 NBsUse=   253 1.00D-06 EigRej= -1.00D+00 NBFU=    92    37    63    61
 Leave Link  302 at Wed Mar  1 23:46:11 2023, MaxMem=   524288000 cpu:               3.7 elap:               1.3
 (Enter /home/pcmt/gaussian/g16.C.01/g16/l303.exe)
 DipDrv:  MaxL=1.
 Leave Link  303 at Wed Mar  1 23:46:12 2023, MaxMem=   524288000 cpu:               0.3 elap:               0.1
 (Enter /home/pcmt/gaussian/g16.C.01/g16/l401.exe)
 Initial guess from the checkpoint file:  "gs-uo2_cl2.mp2.sp.chk"
 B after Tr=     0.000000   -0.000000   -0.000000
         Rot=    1.000000   -0.000000   -0.000000   -0.000000 Ang=   0.00 deg.
 Guess basis will be translated and rotated to current coordinates.
 JPrj=2 DoOrth=T DoCkMO=T.
 Initial guess orbital symmetries:
       Occupied  (A1) (B1) (B2) (A1) (A1) (A1) (B1) (A1) (B1) (B2)
                 (B1) (A1) (A1) (B1) (B2) (A2) (A1) (B1) (B2) (A2)
                 (A1) (A1) (B2) (A1) (B1) (A1) (A1) (B1) (B2) (B2)
                 (A2) (A1) (B1) (A1) (B2) (A1) (B1) (A1) (B1) (A2)
                 (B2)
       Virtual   (A1) (B1) (B2) (A2) (A1) (B1) (A1) (A1) (B1) (A1)
                 (B2) (B2) (B1) (A1) (A2) (B2) (B2) (A1) (A1) (B1)
                 (A2) (B1) (B2) (A1) (A1) (B2) (B1) (A1) (A2) (B1)
                 (A2) (A1) (B2) (B1) (A1) (B2) (B1) (A2) (A1) (B1)
                 (A1) (B2) (A1) (B1) (B2) (A1) (A2) (A1) (B2) (B1)
                 (A1) (B1) (A2) (B2) (A1) (B2) (A1) (B1) (A1) (A1)
                 (B1) (B1) (B2) (A2) (A1) (A1) (B2) (B1) (A1) (B1)
                 (B2) (A2) (B2) (A2) (A1) (A1) (A2) (A2) (B2) (B1)
                 (A1) (B2) (B1) (B1) (A1) (B2) (A1) (B1) (A2) (B2)
                 (B1) (A1) (A2) (B2) (A1) (B1) (A2) (B2) (A1) (B1)
                 (B2) (B1) (A1) (A2) (B1) (A1) (A1) (B2) (B2) (A1)
                 (B1) (A2) (A1) (B1) (A2) (A1) (B2) (B1) (B2) (A2)
                 (A1) (B1) (A1) (B2) (A2) (A1) (A1) (B1) (B2) (A1)
                 (B2) (B2) (B2) (A2) (B1) (A1) (A1) (B1) (A1) (B1)
                 (A2) (B2) (B1) (A2) (A1) (B2) (B2) (A2) (A1) (A1)
                 (B1) (B2) (A1) (B1) (A1) (B1) (A2) (B2) (A1) (B2)
                 (A2) (B1) (A1) (A2) (B2) (A1) (B1) (B2) (A1) (B1)
                 (A1) (B2) (A2) (A1) (B2) (A1) (A2) (B2) (B1) (A1)
                 (B1) (A1) (A2) (B2) (A1) (B1) (A2) (B2) (B1) (A1)
                 (A1) (B1) (A2) (B2) (A1) (A1) (B1) (B2) (B1) (A1)
                 (A1) (A1) (B2) (A1) (B1) (B2) (A1) (A1) (B1) (B2)
                 (A1) (A1)
 The electronic state of the initial guess is 1-A1.
 Leave Link  401 at Wed Mar  1 23:46:12 2023, MaxMem=   524288000 cpu:               1.3 elap:               0.6
 (Enter /home/pcmt/gaussian/g16.C.01/g16/l502.exe)
 Integral symmetry usage will be decided dynamically.
 Closed shell SCF:
 Using DIIS extrapolation, IDIIS=  1040.
 NGot=   524288000 LenX=   524091876 LenY=   523996571
 Requested convergence on RMS density matrix=1.00D-08 within 100 cycles.
 Requested convergence on MAX density matrix=1.00D-06.
 Requested convergence on             energy=1.00D-06.
 No special actions if energy rises.
 Fock matrices will be formed incrementally for  20 cycles.

 Cycle   1  Pass 1  IDiag  1:
 FoFJK:  IHMeth= 1 ICntrl=       0 DoSepK=F KAlg= 0 I1Cent=           0 FoldK=F
 IRaf= 930000000 NMat=       1 IRICut=       1 DoRegI=T DoRafI=F ISym2E= 1 IDoP0=0 IntGTp=1.
 FoFCou: FMM=F IPFlag=           0 FMFlag=      100000 FMFlg1=           0
         NFxFlg=           0 DoJE=F BraDBF=F KetDBF=F FulRan=T
         wScrn=  0.000000 ICntrl=         0 IOpCl=  0 I1Cent=           0 NGrid=           0
         NMat0=    1 NMatS0=      1 NMatT0=    0 NMatD0=    1 NMtDS0=    0 NMtDT0=    0
 Petite list used in FoFCou.
 E= -1544.17233524426    
 DIIS: error= 3.47D-02 at cycle   1 NSaved=   1.
 NSaved= 1 IEnMin= 1 EnMin= -1544.17233524426     IErMin= 1 ErrMin= 3.47D-02
 ErrMax= 3.47D-02  0.00D+00 EMaxC= 1.00D-01 BMatC= 1.68D-01 BMatP= 1.68D-01
 IDIUse=3 WtCom= 6.53D-01 WtEn= 3.47D-01
 Coeff-Com:  0.100D+01
 Coeff-En:   0.100D+01
 Coeff:      0.100D+01
 Gap=     0.582 Goal=   None    Shift=    0.000
 GapD=    0.582 DampG=2.000 DampE=0.250 DampFc=0.5000 IDamp=-1.
 Damping current iteration by 5.00D-01
 RMSDP=1.72D-03 MaxDP=1.99D-01              OVMax= 8.80D-02

 Cycle   2  Pass 1  IDiag  1:
 RMSU=  7.53D-04    CP:  9.87D-01
 E= -1544.20408020469     Delta-E=       -0.031744960427 Rises=F Damp=T
 DIIS: error= 1.76D-02 at cycle   2 NSaved=   2.
 NSaved= 2 IEnMin= 2 EnMin= -1544.20408020469     IErMin= 2 ErrMin= 1.76D-02
 ErrMax= 1.76D-02  0.00D+00 EMaxC= 1.00D-01 BMatC= 5.23D-02 BMatP= 1.68D-01
 IDIUse=3 WtCom= 8.24D-01 WtEn= 1.76D-01
 Coeff-Com: -0.441D+00 0.144D+01
 Coeff-En:   0.000D+00 0.100D+01
 Coeff:     -0.363D+00 0.136D+01
 Gap=     0.436 Goal=   None    Shift=    0.000
 RMSDP=1.02D-03 MaxDP=6.87D-02 DE=-3.17D-02 OVMax= 6.12D-02

 Cycle   3  Pass 1  IDiag  1:
 RMSU=  9.88D-04    CP:  9.89D-01  1.35D+00
 E= -1544.23370426520     Delta-E=       -0.029624060516 Rises=F Damp=F
 DIIS: error= 1.23D-02 at cycle   3 NSaved=   3.
 NSaved= 3 IEnMin= 3 EnMin= -1544.23370426520     IErMin= 3 ErrMin= 1.23D-02
 ErrMax= 1.23D-02  0.00D+00 EMaxC= 1.00D-01 BMatC= 2.36D-02 BMatP= 5.23D-02
 IDIUse=3 WtCom= 8.77D-01 WtEn= 1.23D-01
 Coeff-Com: -0.417D+00 0.776D+00 0.642D+00
 Coeff-En:   0.000D+00 0.000D+00 0.100D+01
 Coeff:     -0.366D+00 0.680D+00 0.686D+00
 Gap=     0.430 Goal=   None    Shift=    0.000
 RMSDP=4.28D-04 MaxDP=3.80D-02 DE=-2.96D-02 OVMax= 3.65D-02

 Cycle   4  Pass 1  IDiag  1:
 RMSU=  1.63D-04    CP:  9.84D-01  1.76D+00  8.20D-01
 E= -1544.24768357584     Delta-E=       -0.013979310640 Rises=F Damp=F
 DIIS: error= 2.94D-03 at cycle   4 NSaved=   4.
 NSaved= 4 IEnMin= 4 EnMin= -1544.24768357584     IErMin= 4 ErrMin= 2.94D-03
 ErrMax= 2.94D-03  0.00D+00 EMaxC= 1.00D-01 BMatC= 2.20D-03 BMatP= 2.36D-02
 IDIUse=3 WtCom= 9.71D-01 WtEn= 2.94D-02
 Coeff-Com: -0.165D-01 0.286D-02 0.232D+00 0.782D+00
 Coeff-En:   0.000D+00 0.000D+00 0.000D+00 0.100D+01
 Coeff:     -0.161D-01 0.278D-02 0.225D+00 0.788D+00
 Gap=     0.428 Goal=   None    Shift=    0.000
 RMSDP=1.41D-04 MaxDP=1.16D-02 DE=-1.40D-02 OVMax= 1.24D-02

 Cycle   5  Pass 1  IDiag  1:
 RMSU=  5.77D-05    CP:  9.85D-01  1.72D+00  9.39D-01  1.05D+00
 E= -1544.24921519996     Delta-E=       -0.001531624115 Rises=F Damp=F
 DIIS: error= 6.34D-04 at cycle   5 NSaved=   5.
 NSaved= 5 IEnMin= 5 EnMin= -1544.24921519996     IErMin= 5 ErrMin= 6.34D-04
 ErrMax= 6.34D-04  0.00D+00 EMaxC= 1.00D-01 BMatC= 7.63D-05 BMatP= 2.20D-03
 IDIUse=3 WtCom= 9.94D-01 WtEn= 6.34D-03
 Coeff-Com:  0.693D-01-0.130D+00-0.103D+00 0.199D-01 0.114D+01
 Coeff-En:   0.000D+00 0.000D+00 0.000D+00 0.000D+00 0.100D+01
 Coeff:      0.688D-01-0.129D+00-0.102D+00 0.198D-01 0.114D+01
 Gap=     0.427 Goal=   None    Shift=    0.000
 RMSDP=6.50D-05 MaxDP=4.04D-03 DE=-1.53D-03 OVMax= 6.87D-03

 Cycle   6  Pass 1  IDiag  1:
 RMSU=  2.68D-05    CP:  9.85D-01  1.72D+00  9.77D-01  1.27D+00  1.46D+00
 E= -1544.24946383692     Delta-E=       -0.000248636959 Rises=F Damp=F
 DIIS: error= 3.77D-04 at cycle   6 NSaved=   6.
 NSaved= 6 IEnMin= 6 EnMin= -1544.24946383692     IErMin= 6 ErrMin= 3.77D-04
 ErrMax= 3.77D-04  0.00D+00 EMaxC= 1.00D-01 BMatC= 1.59D-05 BMatP= 7.63D-05
 IDIUse=3 WtCom= 9.96D-01 WtEn= 3.77D-03
 Coeff-Com: -0.153D-01 0.324D-01-0.133D-01-0.123D+00-0.146D+00 0.127D+01
 Coeff-En:   0.000D+00 0.000D+00 0.000D+00 0.000D+00 0.000D+00 0.100D+01
 Coeff:     -0.153D-01 0.322D-01-0.133D-01-0.123D+00-0.146D+00 0.126D+01
 Gap=     0.428 Goal=   None    Shift=    0.000
 RMSDP=3.08D-05 MaxDP=1.27D-03 DE=-2.49D-04 OVMax= 4.71D-03

 Cycle   7  Pass 1  IDiag  1:
 RMSU=  1.14D-05    CP:  9.85D-01  1.72D+00  9.81D-01  1.35D+00  1.83D+00
                    CP:  1.53D+00
 E= -1544.24952628284     Delta-E=       -0.000062445926 Rises=F Damp=F
 DIIS: error= 1.45D-04 at cycle   7 NSaved=   7.
 NSaved= 7 IEnMin= 7 EnMin= -1544.24952628284     IErMin= 7 ErrMin= 1.45D-04
 ErrMax= 1.45D-04  0.00D+00 EMaxC= 1.00D-01 BMatC= 4.50D-06 BMatP= 1.59D-05
 IDIUse=3 WtCom= 9.99D-01 WtEn= 1.45D-03
 Coeff-Com: -0.197D-01 0.380D-01 0.168D-01-0.341D-01-0.261D+00 0.178D+00
 Coeff-Com:  0.108D+01
 Coeff-En:   0.000D+00 0.000D+00 0.000D+00 0.000D+00 0.000D+00 0.000D+00
 Coeff-En:   0.100D+01
 Coeff:     -0.197D-01 0.379D-01 0.168D-01-0.341D-01-0.261D+00 0.178D+00
 Coeff:      0.108D+01
 Gap=     0.428 Goal=   None    Shift=    0.000
 RMSDP=1.78D-05 MaxDP=9.51D-04 DE=-6.24D-05 OVMax= 2.69D-03

 Cycle   8  Pass 1  IDiag  1:
 RMSU=  5.09D-06    CP:  9.85D-01  1.72D+00  9.79D-01  1.37D+00  2.02D+00
                    CP:  1.90D+00  1.55D+00
 E= -1544.24954162370     Delta-E=       -0.000015340861 Rises=F Damp=F
 DIIS: error= 5.65D-05 at cycle   8 NSaved=   8.
 NSaved= 8 IEnMin= 8 EnMin= -1544.24954162370     IErMin= 8 ErrMin= 5.65D-05
 ErrMax= 5.65D-05  0.00D+00 EMaxC= 1.00D-01 BMatC= 9.16D-07 BMatP= 4.50D-06
 IDIUse=1 WtCom= 1.00D+00 WtEn= 0.00D+00
 Coeff-Com: -0.166D-03-0.204D-03 0.408D-02 0.226D-01 0.317D-02-0.325D+00
 Coeff-Com:  0.198D+00 0.110D+01
 Coeff:     -0.166D-03-0.204D-03 0.408D-02 0.226D-01 0.317D-02-0.325D+00
 Coeff:      0.198D+00 0.110D+01
 Gap=     0.428 Goal=   None    Shift=    0.000
 RMSDP=9.74D-06 MaxDP=5.22D-04 DE=-1.53D-05 OVMax= 1.32D-03

 Cycle   9  Pass 1  IDiag  1:
 RMSU=  2.24D-06    CP:  9.85D-01  1.72D+00  9.76D-01  1.38D+00  2.10D+00
                    CP:  2.08D+00  1.97D+00  1.32D+00
 E= -1544.24954435220     Delta-E=       -0.000002728497 Rises=F Damp=F
 DIIS: error= 1.13D-05 at cycle   9 NSaved=   9.
 NSaved= 9 IEnMin= 9 EnMin= -1544.24954435220     IErMin= 9 ErrMin= 1.13D-05
 ErrMax= 1.13D-05  0.00D+00 EMaxC= 1.00D-01 BMatC= 4.42D-08 BMatP= 9.16D-07
 IDIUse=1 WtCom= 1.00D+00 WtEn= 0.00D+00
 Coeff-Com:  0.140D-02-0.282D-02-0.706D-03 0.510D-02 0.221D-01-0.506D-01
 Coeff-Com: -0.696D-01 0.128D+00 0.968D+00
 Coeff:      0.140D-02-0.282D-02-0.706D-03 0.510D-02 0.221D-01-0.506D-01
 Coeff:     -0.696D-01 0.128D+00 0.968D+00
 Gap=     0.428 Goal=   None    Shift=    0.000
 RMSDP=1.87D-06 MaxDP=1.32D-04 DE=-2.73D-06 OVMax= 1.90D-04

 Cycle  10  Pass 1  IDiag  1:
 RMSU=  6.85D-07    CP:  9.85D-01  1.72D+00  9.76D-01  1.37D+00  2.11D+00
                    CP:  2.09D+00  2.06D+00  1.47D+00  1.28D+00
 E= -1544.24954447449     Delta-E=       -0.000000122285 Rises=F Damp=F
 DIIS: error= 5.14D-06 at cycle  10 NSaved=  10.
 NSaved=10 IEnMin=10 EnMin= -1544.24954447449     IErMin=10 ErrMin= 5.14D-06
 ErrMax= 5.14D-06  0.00D+00 EMaxC= 1.00D-01 BMatC= 5.63D-09 BMatP= 4.42D-08
 IDIUse=1 WtCom= 1.00D+00 WtEn= 0.00D+00
 Coeff-Com:  0.219D-03-0.322D-03-0.661D-03-0.302D-02 0.144D-02 0.391D-01
 Coeff-Com: -0.239D-01-0.142D+00-0.660D-01 0.120D+01
 Coeff:      0.219D-03-0.322D-03-0.661D-03-0.302D-02 0.144D-02 0.391D-01
 Coeff:     -0.239D-01-0.142D+00-0.660D-01 0.120D+01
 Gap=     0.428 Goal=   None    Shift=    0.000
 RMSDP=7.47D-07 MaxDP=3.28D-05 DE=-1.22D-07 OVMax= 6.70D-05

 Cycle  11  Pass 1  IDiag  1:
 RMSU=  2.06D-07    CP:  9.85D-01  1.72D+00  9.76D-01  1.37D+00  2.11D+00
                    CP:  2.10D+00  2.08D+00  1.53D+00  1.48D+00  1.29D+00
 E= -1544.24954449441     Delta-E=       -0.000000019926 Rises=F Damp=F
 DIIS: error= 2.50D-06 at cycle  11 NSaved=  11.
 NSaved=11 IEnMin=11 EnMin= -1544.24954449441     IErMin=11 ErrMin= 2.50D-06
 ErrMax= 2.50D-06  0.00D+00 EMaxC= 1.00D-01 BMatC= 6.34D-10 BMatP= 5.63D-09
 IDIUse=1 WtCom= 1.00D+00 WtEn= 0.00D+00
 Coeff-Com: -0.191D-03 0.352D-03 0.212D-03 0.369D-03-0.184D-02-0.512D-02
 Coeff-Com:  0.118D-01 0.224D-01-0.646D-01-0.286D+00 0.132D+01
 Coeff:     -0.191D-03 0.352D-03 0.212D-03 0.369D-03-0.184D-02-0.512D-02
 Coeff:      0.118D-01 0.224D-01-0.646D-01-0.286D+00 0.132D+01
 Gap=     0.428 Goal=   None    Shift=    0.000
 RMSDP=2.13D-07 MaxDP=1.01D-05 DE=-1.99D-08 OVMax= 2.89D-05

 Cycle  12  Pass 1  IDiag  1:
 RMSU=  7.41D-08    CP:  9.85D-01  1.72D+00  9.76D-01  1.37D+00  2.11D+00
                    CP:  2.09D+00  2.09D+00  1.54D+00  1.52D+00  1.44D+00
                    CP:  1.58D+00
 E= -1544.24954449721     Delta-E=       -0.000000002794 Rises=F Damp=F
 DIIS: error= 1.65D-06 at cycle  12 NSaved=  12.
 NSaved=12 IEnMin=12 EnMin= -1544.24954449721     IErMin=12 ErrMin= 1.65D-06
 ErrMax= 1.65D-06  0.00D+00 EMaxC= 1.00D-01 BMatC= 1.83D-10 BMatP= 6.34D-10
 IDIUse=1 WtCom= 1.00D+00 WtEn= 0.00D+00
 Coeff-Com:  0.516D-04-0.110D-03 0.396D-04 0.324D-03 0.189D-03-0.464D-02
 Coeff-Com: -0.716D-03 0.167D-01 0.411D-01-0.933D-01-0.515D+00 0.156D+01
 Coeff:      0.516D-04-0.110D-03 0.396D-04 0.324D-03 0.189D-03-0.464D-02
 Coeff:     -0.716D-03 0.167D-01 0.411D-01-0.933D-01-0.515D+00 0.156D+01
 Gap=     0.428 Goal=   None    Shift=    0.000
 RMSDP=1.24D-07 MaxDP=5.18D-06 DE=-2.79D-09 OVMax= 2.30D-05

 Cycle  13  Pass 1  IDiag  1:
 RMSU=  3.55D-08    CP:  9.85D-01  1.72D+00  9.76D-01  1.37D+00  2.11D+00
                    CP:  2.10D+00  2.08D+00  1.54D+00  1.52D+00  1.47D+00
                    CP:  1.98D+00  1.93D+00
 E= -1544.24954449818     Delta-E=       -0.000000000973 Rises=F Damp=F
 DIIS: error= 9.71D-07 at cycle  13 NSaved=  13.
 NSaved=13 IEnMin=13 EnMin= -1544.24954449818     IErMin=13 ErrMin= 9.71D-07
 ErrMax= 9.71D-07  0.00D+00 EMaxC= 1.00D-01 BMatC= 4.66D-11 BMatP= 1.83D-10
 IDIUse=1 WtCom= 1.00D+00 WtEn= 0.00D+00
 Coeff-Com:  0.281D-04-0.443D-04-0.880D-04-0.250D-03 0.527D-03 0.415D-02
 Coeff-Com: -0.360D-02-0.163D-01-0.663D-03 0.140D+00-0.187D+00-0.691D+00
 Coeff-Com:  0.175D+01
 Coeff:      0.281D-04-0.443D-04-0.880D-04-0.250D-03 0.527D-03 0.415D-02
 Coeff:     -0.360D-02-0.163D-01-0.663D-03 0.140D+00-0.187D+00-0.691D+00
 Coeff:      0.175D+01
 Gap=     0.428 Goal=   None    Shift=    0.000
 RMSDP=8.33D-08 MaxDP=3.29D-06 DE=-9.73D-10 OVMax= 1.83D-05

 Cycle  14  Pass 1  IDiag  1:
 RMSU=  1.75D-08    CP:  9.85D-01  1.72D+00  9.76D-01  1.37D+00  2.11D+00
                    CP:  2.10D+00  2.08D+00  1.54D+00  1.51D+00  1.48D+00
                    CP:  2.17D+00  2.71D+00  2.14D+00
 E= -1544.24954449849     Delta-E=       -0.000000000315 Rises=F Damp=F
 DIIS: error= 3.41D-07 at cycle  14 NSaved=  14.
 NSaved=14 IEnMin=14 EnMin= -1544.24954449849     IErMin=14 ErrMin= 3.41D-07
 ErrMax= 3.41D-07  0.00D+00 EMaxC= 1.00D-01 BMatC= 5.22D-12 BMatP= 4.66D-11
 IDIUse=1 WtCom= 1.00D+00 WtEn= 0.00D+00
 Coeff-Com: -0.200D-04 0.377D-04 0.195D-04 0.101D-04-0.213D-03-0.242D-03
 Coeff-Com:  0.119D-02 0.129D-02-0.708D-02-0.249D-01 0.151D+00-0.878D-01
 Coeff-Com: -0.489D+00 0.146D+01
 Coeff:     -0.200D-04 0.377D-04 0.195D-04 0.101D-04-0.213D-03-0.242D-03
 Coeff:      0.119D-02 0.129D-02-0.708D-02-0.249D-01 0.151D+00-0.878D-01
 Coeff:     -0.489D+00 0.146D+01
 Gap=     0.428 Goal=   None    Shift=    0.000
 RMSDP=2.73D-08 MaxDP=1.14D-06 DE=-3.15D-10 OVMax= 6.18D-06

 Cycle  15  Pass 1  IDiag  1:
 RMSU=  6.09D-09    CP:  9.85D-01  1.72D+00  9.76D-01  1.37D+00  2.11D+00
                    CP:  2.10D+00  2.08D+00  1.54D+00  1.51D+00  1.48D+00
                    CP:  2.20D+00  2.89D+00  2.66D+00  1.66D+00
 E= -1544.24954449854     Delta-E=       -0.000000000051 Rises=F Damp=F
 DIIS: error= 9.17D-08 at cycle  15 NSaved=  15.
 NSaved=15 IEnMin=15 EnMin= -1544.24954449854     IErMin=15 ErrMin= 9.17D-08
 ErrMax= 9.17D-08  0.00D+00 EMaxC= 1.00D-01 BMatC= 7.00D-13 BMatP= 5.22D-12
 IDIUse=1 WtCom= 1.00D+00 WtEn= 0.00D+00
 Coeff-Com:  0.268D-06-0.162D-05 0.887D-05 0.255D-04-0.500D-04-0.473D-03
 Coeff-Com:  0.221D-03 0.207D-02 0.134D-02-0.145D-01-0.156D-04 0.111D+00
 Coeff-Com: -0.164D+00-0.211D+00 0.128D+01
 Coeff:      0.268D-06-0.162D-05 0.887D-05 0.255D-04-0.500D-04-0.473D-03
 Coeff:      0.221D-03 0.207D-02 0.134D-02-0.145D-01-0.156D-04 0.111D+00
 Coeff:     -0.164D+00-0.211D+00 0.128D+01
 Gap=     0.428 Goal=   None    Shift=    0.000
 RMSDP=7.54D-09 MaxDP=2.49D-07 DE=-5.14D-11 OVMax= 1.41D-06

 SCF Done:  E(RHF) =  -1544.24954450     A.U. after   15 cycles
            NFock= 15  Conv=0.75D-08     -V/T= 2.2687
 KE= 1.217199291489D+03 PE=-4.558909726340D+03 EE= 1.272436707805D+03
 Leave Link  502 at Wed Mar  1 23:48:39 2023, MaxMem=   524288000 cpu:             321.2 elap:             146.9
 (Enter /home/pcmt/gaussian/g16.C.01/g16/l801.exe)
 Range of M.O.s used for correlation:    22   253
 NBasis=   253 NAE=    41 NBE=    41 NFC=    21 NFV=     0
 NROrb=    232 NOA=    20 NOB=    20 NVA=   212 NVB=   212

 **** Warning!!: The largest alpha MO coefficient is  0.10791267D+02

 Leave Link  801 at Wed Mar  1 23:48:40 2023, MaxMem=   524288000 cpu:               0.1 elap:               0.1
 (Enter /home/pcmt/gaussian/g16.C.01/g16/l906.exe)
 FulOut=F Deriv=F AODrv=F NAtomX=     5
   MMem=          86  MDisk=          20 MDiskD=          20
  W3Min=     1305920 MinDsk=     1755378 NBas6D=         308
 NBas2D=       48531    NTT=       47586    LW2=     7969600
    MDV=   523894546 MDiskM=        3765 NBas2p=       28442
 Fully direct method using O(OVN) memory.
 IMap=   1   2   3   4   5   6   7   8   9  10  11  12  13  14  15  16  17  18  19  20
 JobTyp=1 Pass  1:  I=   1 to  20 NPSUse=  1 ParTrn=F ParDer=F DoDerP=F.
 Spin components of T(2) and E(2):
     alpha-alpha T2 =       0.7132251911D-01 E2=     -0.2026442870D+00
     alpha-beta  T2 =       0.3169397664D+00 E2=     -0.9862786463D+00
     beta-beta   T2 =       0.7132251911D-01 E2=     -0.2026442870D+00
 The integrals were generated   1 times.
 ANorm=    0.1208132776D+01
 E2 =    -0.1391567220D+01 EUMP2 =    -0.15456411117189D+04
 Leave Link  906 at Wed Mar  1 23:50:23 2023, MaxMem=   524288000 cpu:              79.1 elap:             102.8
 (Enter /home/pcmt/gaussian/g16.C.01/g16/l601.exe)
 Copying SCF densities to generalized density rwf, IOpCl= 0 IROHF=0.

 **********************************************************************

            Population analysis using the SCF Density.

 **********************************************************************

 Orbital symmetries:
       Occupied  (A1) (B1) (A1) (B2) (A1) (B1) (A1) (B1) (A1) (B2)
                 (B1) (A1) (B1) (A1) (B2) (A2) (A1) (B2) (A2) (B1)
                 (A1) (A1) (B2) (A1) (B1) (A1) (A1) (B1) (B2) (B2)
                 (A2) (A1) (B1) (A1) (B2) (A1) (B1) (A1) (A2) (B1)
                 (B2)
       Virtual   (A1) (B1) (A1) (B2) (A2) (B1) (A1) (B2) (A1) (B1)
                 (A1) (B1) (A1) (B2) (A2) (B2) (B2) (A1) (A1) (B1)
                 (A2) (B1) (A1) (B2) (A1) (B2) (A1) (B1) (A2) (B1)
                 (B2) (A2) (A1) (B2) (B1) (A1) (B1) (A2) (A1) (B1)
                 (A1) (B2) (A1) (B2) (B1) (A2) (A1) (B2) (A1) (B1)
                 (B2) (A1) (B1) (A2) (A1) (B2) (A1) (B1) (A1) (A1)
                 (B1) (B1) (B2) (A2) (A1) (B2) (A1) (B1) (A1) (B1)
                 (B2) (A2) (B2) (A2) (A1) (A2) (A1) (B2) (A2) (B1)
                 (A1) (B2) (B1) (B1) (A1) (B2) (B1) (A1) (B2) (A2)
                 (B1) (A1) (B2) (A2) (A1) (B1) (A2) (A1) (B2) (B1)
                 (B2) (B1) (A1) (A1) (A2) (B1) (A1) (B2) (B2) (A1)
                 (B1) (A2) (A1) (B1) (A2) (A1) (B2) (B1) (B2) (A2)
                 (A1) (A1) (B1) (B2) (A1) (A2) (A1) (B1) (B2) (A1)
                 (B2) (B2) (B2) (A2) (B1) (A1) (A1) (B1) (A1) (B1)
                 (A2) (B2) (B1) (A1) (A2) (B2) (B2) (A2) (A1) (A1)
                 (B1) (B2) (A1) (A1) (B1) (B1) (A1) (A2) (B2) (B1)
                 (B2) (A2) (A1) (A2) (B2) (A1) (B1) (B2) (A1) (B1)
                 (A1) (B2) (A2) (A1) (B2) (A1) (A2) (B2) (B1) (A1)
                 (B1) (A1) (A2) (B2) (A1) (B1) (A2) (B2) (B1) (A1)
                 (A1) (B1) (A2) (B2) (A1) (A1) (B1) (B2) (B1) (A1)
                 (A1) (A1) (B2) (A1) (B1) (B2) (A1) (A1) (B1) (B2)
                 (A1) (A1)
 The electronic state is 1-A1.
 Alpha  occ. eigenvalues -- -104.80367-104.80367 -20.64149 -20.64149 -13.22394
 Alpha  occ. eigenvalues --  -10.53392 -10.53392  -8.48913  -8.48867  -8.46660
 Alpha  occ. eigenvalues --   -8.00026  -8.00026  -7.99981  -7.99981  -7.99958
 Alpha  occ. eigenvalues --   -7.99958  -4.49754  -4.47451  -4.47381  -4.47350
 Alpha  occ. eigenvalues --   -4.47256  -2.37392  -1.60543  -1.35377  -1.29296
 Alpha  occ. eigenvalues --   -1.26679  -1.04526  -1.03395  -1.00318  -0.63460
 Alpha  occ. eigenvalues --   -0.63408  -0.61610  -0.59306  -0.58966  -0.58163
 Alpha  occ. eigenvalues --   -0.48943  -0.48197  -0.46314  -0.45170  -0.44847
 Alpha  occ. eigenvalues --   -0.44165
 Alpha virt. eigenvalues --   -0.01339   0.02990   0.04533   0.05979   0.06061
 Alpha virt. eigenvalues --    0.06974   0.07375   0.08500   0.08912   0.11827
 Alpha virt. eigenvalues --    0.12086   0.14311   0.15359   0.18483   0.22353
 Alpha virt. eigenvalues --    0.24392   0.27241   0.28060   0.33341   0.33804
 Alpha virt. eigenvalues --    0.36256   0.39055   0.40709   0.40793   0.44991
 Alpha virt. eigenvalues --    0.45714   0.46183   0.48092   0.50598   0.52709
 Alpha virt. eigenvalues --    0.54418   0.54594   0.55018   0.56818   0.56907
 Alpha virt. eigenvalues --    0.57151   0.64661   0.66367   0.66566   0.67941
 Alpha virt. eigenvalues --    0.69786   0.72666   0.75738   0.80899   0.81405
 Alpha virt. eigenvalues --    0.82016   0.82560   0.84454   0.84568   0.89770
 Alpha virt. eigenvalues --    0.90185   0.91040   0.91371   0.93292   0.97388
 Alpha virt. eigenvalues --    1.05149   1.25685   1.27299   1.37903   1.45132
 Alpha virt. eigenvalues --    1.49611   1.61609   1.61616   1.62363   1.64291
 Alpha virt. eigenvalues --    1.65103   1.68518   1.72180   1.73303   1.74049
 Alpha virt. eigenvalues --    1.78418   1.84114   1.88458   1.89487   1.93222
 Alpha virt. eigenvalues --    2.01999   2.02578   2.04799   2.11769   2.14453
 Alpha virt. eigenvalues --    2.16552   2.16715   2.20185   2.23661   2.23971
 Alpha virt. eigenvalues --    2.24109   2.25326   2.27394   2.29405   2.31835
 Alpha virt. eigenvalues --    2.36568   2.36915   2.40647   2.41266   2.41584
 Alpha virt. eigenvalues --    2.42470   2.42693   2.45008   2.45544   2.47688
 Alpha virt. eigenvalues --    2.49081   2.50960   2.53903   2.58842   2.58852
 Alpha virt. eigenvalues --    2.58918   2.60633   2.61298   2.64450   2.66631
 Alpha virt. eigenvalues --    2.67957   2.72490   2.77890   2.78918   2.81055
 Alpha virt. eigenvalues --    2.84653   2.85515   2.86269   2.91916   2.91966
 Alpha virt. eigenvalues --    3.00498   3.20121   3.20139   3.32221   3.35312
 Alpha virt. eigenvalues --    3.36406   3.40353   3.43591   3.45628   4.40521
 Alpha virt. eigenvalues --    4.74782   4.93998   5.05262   5.07864   5.15450
 Alpha virt. eigenvalues --    5.18010   5.34221   5.39898   5.46778   5.46969
 Alpha virt. eigenvalues --    5.48283   5.48386   5.49830   5.50704   5.51015
 Alpha virt. eigenvalues --    5.56142   5.57963   5.59390   5.61085   5.72322
 Alpha virt. eigenvalues --    5.73707   5.79899   6.57745   6.60986   6.62252
 Alpha virt. eigenvalues --    6.64214   6.67187   6.68037   6.68848   6.75721
 Alpha virt. eigenvalues --    6.76271   6.77584   6.79118   6.81097   6.86726
 Alpha virt. eigenvalues --    6.88288   6.89881   7.00443   7.14062   7.17086
 Alpha virt. eigenvalues --    7.34191   7.54921   7.56471   7.65701   7.97534
 Alpha virt. eigenvalues --    8.58526   8.65151   8.76863   8.80900  10.06511
 Alpha virt. eigenvalues --   11.51028  11.51124  11.51244  11.53468  11.73336
 Alpha virt. eigenvalues --   11.75982  14.08817  14.09594  14.10561  14.12390
 Alpha virt. eigenvalues --   14.16859  14.18386  14.45243  14.54517  14.88217
 Alpha virt. eigenvalues --   22.04094  22.08412  22.28883  25.88102  25.89309
 Alpha virt. eigenvalues --   32.25069  45.18901  45.36181  48.52803  48.56617
 Alpha virt. eigenvalues --   48.74576  59.83851 122.75993 122.81234 123.03983
 Alpha virt. eigenvalues --  229.55291 674.10392
     Molecular Orbital Coefficients:
                           1         2         3         4         5
                        (A1)--O   (B1)--O   (A1)--O   (B2)--O   (A1)--O
     Eigenvalues --  -104.80367-104.80367 -20.64149 -20.64149 -13.22394
   1 1   U  1S         -0.00000   0.00000   0.00000   0.00000  -0.00356
   2        2S         -0.00002   0.00000   0.00001   0.00000  -0.53641
   3        3S          0.00000   0.00000  -0.00000   0.00000   0.00626
   4        4S          0.00003   0.00000  -0.00002   0.00000   1.28148
   5        5S         -0.00010   0.00000  -0.00001   0.00000  -1.06853
   6        6S          0.00016   0.00000   0.00030   0.00000  -0.43286
   7        7S         -0.00009   0.00000  -0.00160   0.00000  -0.01340
   8        8S         -0.00029   0.00000   0.00193   0.00000   0.00036
   9        9S          0.00171   0.00000  -0.00258   0.00000  -0.00008
  10       10S         -0.00034   0.00000   0.00048   0.00000   0.00003
  11       11PX         0.00000  -0.00000   0.00000   0.00000   0.00000
  12       11PY         0.00000   0.00000   0.00000  -0.00000   0.00000
  13       11PZ         0.00000   0.00000   0.00000   0.00000   0.00001
  14       12PX         0.00000   0.00001   0.00000   0.00000   0.00000
  15       12PY         0.00000   0.00000   0.00000   0.00001   0.00000
  16       12PZ        -0.00001   0.00000  -0.00001   0.00000  -0.00007
  17       13PX         0.00000  -0.00003   0.00000   0.00000   0.00000
  18       13PY         0.00000   0.00000   0.00000  -0.00001   0.00000
  19       13PZ         0.00002   0.00000   0.00002   0.00000   0.00019
  20       14PX         0.00000   0.00004   0.00000   0.00000   0.00000
  21       14PY         0.00000   0.00000   0.00000   0.00001   0.00000
  22       14PZ        -0.00003   0.00000  -0.00003   0.00000  -0.00003
  23       15PX         0.00000  -0.00006   0.00000   0.00000   0.00000
  24       15PY         0.00000   0.00000   0.00000   0.00001   0.00000
  25       15PZ         0.00004   0.00000   0.00004   0.00000  -0.00047
  26       16PX         0.00000   0.00008   0.00000   0.00000   0.00000
  27       16PY         0.00000   0.00000   0.00000  -0.00112   0.00000
  28       16PZ        -0.00005   0.00000  -0.00015   0.00000   0.00006
  29       17PX         0.00000  -0.00032   0.00000   0.00000   0.00000
  30       17PY         0.00000   0.00000   0.00000   0.00295   0.00000
  31       17PZ         0.00023   0.00000   0.00026   0.00000  -0.00005
  32       18PX         0.00000   0.00146   0.00000   0.00000   0.00000
  33       18PY         0.00000   0.00000   0.00000  -0.00446   0.00000
  34       18PZ        -0.00110   0.00000   0.00006   0.00000  -0.00007
  35       19PX         0.00000   0.00007   0.00000   0.00000   0.00000
  36       19PY         0.00000   0.00000   0.00000   0.00019   0.00000
  37       19PZ        -0.00002   0.00000  -0.00006   0.00000   0.00001
  38       20D 0        0.00000   0.00000  -0.00005   0.00000  -0.00131
  39       20D+1        0.00000   0.00004   0.00000   0.00000   0.00000
  40       20D-1        0.00000   0.00000   0.00000   0.00005   0.00000
  41       20D+2       -0.00003   0.00000  -0.00006   0.00000  -0.00219
  42       20D-2        0.00000   0.00000   0.00000   0.00000   0.00000
  43       21D 0       -0.00000   0.00000   0.00017   0.00000   0.00053
  44       21D+1        0.00000  -0.00010   0.00000   0.00000   0.00000
  45       21D-1        0.00000   0.00000   0.00000  -0.00015   0.00000
  46       21D+2        0.00007   0.00000   0.00025   0.00000   0.00075
  47       21D-2        0.00000   0.00000   0.00000   0.00000   0.00000
  48       22D 0       -0.00000   0.00000  -0.00021   0.00000  -0.00028
  49       22D+1        0.00000   0.00016   0.00000   0.00000   0.00000
  50       22D-1        0.00000   0.00000   0.00000   0.00018   0.00000
  51       22D+2       -0.00012   0.00000  -0.00030   0.00000  -0.00043
  52       22D-2        0.00000   0.00000   0.00000   0.00000   0.00000
  53       23D 0        0.00003   0.00000  -0.00060   0.00000   0.00013
  54       23D+1        0.00000  -0.00027   0.00000   0.00000   0.00000
  55       23D-1        0.00000   0.00000   0.00000   0.00014   0.00000
  56       23D+2        0.00025   0.00000  -0.00115   0.00000   0.00023
  57       23D-2        0.00000   0.00000   0.00000   0.00000   0.00000
  58       24D 0       -0.00003   0.00000   0.00065   0.00000  -0.00000
  59       24D+1        0.00000  -0.00070   0.00000   0.00000   0.00000
  60       24D-1        0.00000   0.00000   0.00000  -0.00023   0.00000
  61       24D+2        0.00052   0.00000   0.00093   0.00000   0.00005
  62       24D-2        0.00000   0.00000   0.00000   0.00000   0.00000
  63       25F 0       -0.00000   0.00000  -0.00001   0.00000  -0.00002
  64       25F+1        0.00000  -0.00000   0.00000   0.00000   0.00000
  65       25F-1        0.00000   0.00000   0.00000  -0.00004   0.00000
  66       25F+2       -0.00000   0.00000  -0.00000   0.00000   0.00028
  67       25F-2        0.00000   0.00000   0.00000   0.00000   0.00000
  68       25F+3        0.00000   0.00001   0.00000   0.00000   0.00000
  69       25F-3        0.00000   0.00000   0.00000  -0.00004   0.00000
  70       26F 0       -0.00000   0.00000   0.00001   0.00000  -0.00006
  71       26F+1        0.00000  -0.00000   0.00000   0.00000   0.00000
  72       26F-1        0.00000   0.00000   0.00000   0.00004   0.00000
  73       26F+2        0.00002   0.00000  -0.00002   0.00000  -0.00004
  74       26F-2        0.00000   0.00000   0.00000   0.00000   0.00000
  75       26F+3        0.00000  -0.00002   0.00000   0.00000   0.00000
  76       26F-3        0.00000   0.00000   0.00000   0.00003   0.00000
  77       27F 0        0.00001   0.00000  -0.00018   0.00000   0.00004
  78       27F+1        0.00000   0.00001   0.00000   0.00000   0.00000
  79       27F-1        0.00000   0.00000   0.00000  -0.00083   0.00000
  80       27F+2       -0.00004   0.00000  -0.00021   0.00000   0.00004
  81       27F-2        0.00000   0.00000   0.00000   0.00000   0.00000
  82       27F+3        0.00000   0.00006   0.00000   0.00000   0.00000
  83       27F-3        0.00000   0.00000   0.00000  -0.00108   0.00000
  84       28F 0        0.00024   0.00000  -0.00008   0.00000   0.00002
  85       28F+1        0.00000   0.00015   0.00000   0.00000   0.00000
  86       28F-1        0.00000   0.00000   0.00000   0.00040   0.00000
  87       28F+2       -0.00023   0.00000   0.00009   0.00000  -0.00004
  88       28F-2        0.00000   0.00000   0.00000   0.00000   0.00000
  89       28F+3        0.00000   0.00002   0.00000   0.00000   0.00000
  90       28F-3        0.00000   0.00000   0.00000   0.00046   0.00000
  91       29G 0       -0.00001   0.00000   0.00001   0.00000   0.00001
  92       29G+1        0.00000   0.00000   0.00000   0.00000   0.00000
  93       29G-1        0.00000   0.00000   0.00000  -0.00001   0.00000
  94       29G+2        0.00000   0.00000   0.00001   0.00000  -0.00003
  95       29G-2        0.00000   0.00000   0.00000   0.00000   0.00000
  96       29G+3        0.00000  -0.00001   0.00000   0.00000   0.00000
  97       29G-3        0.00000   0.00000   0.00000  -0.00001   0.00000
  98       29G+4       -0.00000   0.00000   0.00002   0.00000  -0.00002
  99       29G-4        0.00000   0.00000   0.00000   0.00000   0.00000
 100       30G 0        0.00002   0.00000  -0.00003   0.00000  -0.00002
 101       30G+1        0.00000  -0.00001   0.00000   0.00000   0.00000
 102       30G-1        0.00000   0.00000   0.00000   0.00004   0.00000
 103       30G+2       -0.00001   0.00000  -0.00003   0.00000  -0.00004
 104       30G-2        0.00000   0.00000   0.00000   0.00000   0.00000
 105       30G+3        0.00000   0.00002   0.00000   0.00000   0.00000
 106       30G-3        0.00000   0.00000   0.00000   0.00004   0.00000
 107       30G+4        0.00000   0.00000  -0.00006   0.00000  -0.00005
 108       30G-4        0.00000   0.00000   0.00000   0.00000   0.00000
 109       31G 0       -0.00003   0.00000   0.00010   0.00000  -0.00002
 110       31G+1        0.00000   0.00001   0.00000   0.00000   0.00000
 111       31G-1        0.00000   0.00000   0.00000  -0.00011   0.00000
 112       31G+2        0.00002   0.00000   0.00013   0.00000   0.00000
 113       31G-2        0.00000   0.00000   0.00000   0.00000   0.00000
 114       31G+3        0.00000  -0.00003   0.00000   0.00000   0.00000
 115       31G-3        0.00000   0.00000   0.00000  -0.00010   0.00000
 116       31G+4       -0.00000   0.00000   0.00021   0.00000  -0.00001
 117       31G-4        0.00000   0.00000   0.00000   0.00000   0.00000
 118 2   O  1S         -0.00000   0.00000   0.30807   0.30808   0.00001
 119        2S          0.00000   0.00000   0.45425   0.45423   0.00002
 120        3S         -0.00002   0.00000   0.01552   0.01579   0.00001
 121        4S          0.00010   0.00000  -0.00662  -0.00750  -0.00006
 122        5S         -0.00004   0.00000   0.00364   0.00540   0.00015
 123        6PX         0.00000  -0.00000   0.00000   0.00000   0.00000
 124        6PY         0.00000   0.00000  -0.00090  -0.00094   0.00002
 125        6PZ        -0.00000   0.00000  -0.00008  -0.00009   0.00000
 126        7PX         0.00000   0.00002   0.00000   0.00000   0.00000
 127        7PY        -0.00004   0.00000   0.00100   0.00148   0.00002
 128        7PZ        -0.00001   0.00000   0.00011   0.00020   0.00001
 129        8PX         0.00000  -0.00014   0.00000   0.00000   0.00000
 130        8PY         0.00003   0.00000  -0.00033  -0.00114  -0.00006
 131        8PZ         0.00011   0.00000  -0.00015  -0.00018  -0.00001
 132        9D 0       -0.00000   0.00000  -0.00007  -0.00006  -0.00000
 133        9D+1        0.00000  -0.00001   0.00000   0.00000   0.00000
 134        9D-1        0.00000   0.00000   0.00001   0.00002   0.00000
 135        9D+2        0.00000   0.00000  -0.00012  -0.00011  -0.00000
 136        9D-2        0.00000  -0.00000   0.00000   0.00000   0.00000
 137       10D 0       -0.00000   0.00000   0.00017   0.00021   0.00002
 138       10D+1        0.00000   0.00004   0.00000   0.00000   0.00000
 139       10D-1       -0.00001   0.00000  -0.00003  -0.00015  -0.00002
 140       10D+2       -0.00002   0.00000   0.00029   0.00040   0.00004
 141       10D-2        0.00000   0.00001   0.00000   0.00000   0.00000
 142       11F 0        0.00000   0.00000  -0.00000  -0.00002  -0.00001
 143       11F+1        0.00000  -0.00000   0.00000   0.00000   0.00000
 144       11F-1       -0.00000   0.00000  -0.00003  -0.00003  -0.00002
 145       11F+2        0.00000   0.00000  -0.00000  -0.00003  -0.00001
 146       11F-2        0.00000  -0.00000   0.00000   0.00000   0.00000
 147       11F+3        0.00000  -0.00001   0.00000   0.00000   0.00000
 148       11F-3        0.00000   0.00000  -0.00004  -0.00005  -0.00004
 149 3   O  1S         -0.00000   0.00000   0.30807  -0.30808   0.00001
 150        2S          0.00000   0.00000   0.45425  -0.45423   0.00002
 151        3S         -0.00002   0.00000   0.01552  -0.01579   0.00001
 152        4S          0.00010   0.00000  -0.00662   0.00750  -0.00006
 153        5S         -0.00004   0.00000   0.00364  -0.00540   0.00015
 154        6PX         0.00000  -0.00000   0.00000   0.00000   0.00000
 155        6PY        -0.00000   0.00000   0.00090  -0.00094  -0.00002
 156        6PZ        -0.00000   0.00000  -0.00008   0.00009   0.00000
 157        7PX         0.00000   0.00002   0.00000   0.00000   0.00000
 158        7PY         0.00004   0.00000  -0.00100   0.00148  -0.00002
 159        7PZ        -0.00001   0.00000   0.00011  -0.00020   0.00001
 160        8PX         0.00000  -0.00014   0.00000   0.00000   0.00000
 161        8PY        -0.00003   0.00000   0.00033  -0.00114   0.00006
 162        8PZ         0.00011   0.00000  -0.00015   0.00018  -0.00001
 163        9D 0       -0.00000   0.00000  -0.00007   0.00006  -0.00000
 164        9D+1        0.00000  -0.00001   0.00000   0.00000   0.00000
 165        9D-1       -0.00000   0.00000  -0.00001   0.00002  -0.00000
 166        9D+2        0.00000   0.00000  -0.00012   0.00011  -0.00000
 167        9D-2        0.00000   0.00000   0.00000   0.00000   0.00000
 168       10D 0       -0.00000   0.00000   0.00017  -0.00021   0.00002
 169       10D+1        0.00000   0.00004   0.00000   0.00000   0.00000
 170       10D-1        0.00001   0.00000   0.00003  -0.00015   0.00002
 171       10D+2       -0.00002   0.00000   0.00029  -0.00040   0.00004
 172       10D-2        0.00000  -0.00001   0.00000   0.00000   0.00000
 173       11F 0        0.00000   0.00000  -0.00000   0.00002  -0.00001
 174       11F+1        0.00000  -0.00000   0.00000   0.00000   0.00000
 175       11F-1        0.00000   0.00000   0.00003  -0.00003   0.00002
 176       11F+2        0.00000   0.00000  -0.00000   0.00003  -0.00001
 177       11F-2        0.00000   0.00000   0.00000   0.00000   0.00000
 178       11F+3        0.00000  -0.00001   0.00000   0.00000   0.00000
 179       11F-3       -0.00000   0.00000   0.00004  -0.00005   0.00004
 180 4   Cl 1S          0.70681   0.70681  -0.00000   0.00000   0.00000
[...]
 209       12D-2        0.00298
 210       13F 0        0.00014
 211       13F+1        0.00035
 212       13F-1        0.00002
 213       13F+2        0.00037
 214       13F-2        0.00018
 215       13F+3        0.00021
 216       13F-3        0.00017
 217 5   Cl 1S          2.01180
 218        2S          0.44590
 219        3S          1.51649
 220        4S          1.06581
 221        5S          0.92523
 222        6PX         1.39334
 223        6PY         1.39777
 224        6PZ         1.39386
 225        7PX         0.56497
 226        7PY         0.56198
 227        7PZ         0.56462
 228        8PX         0.34240
 229        8PY         0.37065
 230        8PZ         0.34738
 231        9PX         0.96525
 232        9PY         1.00752
 233        9PZ         0.96343
 234       10PX         0.52746
 235       10PY         0.57910
 236       10PZ         0.54538
 237       11D 0        0.00066
 238       11D+1        0.00155
 239       11D-1        0.00028
 240       11D+2        0.00098
 241       11D-2        0.00049
 242       12D 0        0.00513
 243       12D+1        0.00684
 244       12D-1        0.00172
 245       12D+2        0.00465
 246       12D-2        0.00298
 247       13F 0        0.00014
 248       13F+1        0.00035
 249       13F-1        0.00002
 250       13F+2        0.00037
 251       13F-2        0.00018
 252       13F+3        0.00021
 253       13F-3        0.00017
          Condensed to atoms (all electrons):
               1          2          3          4          5
     1  U   28.790122   0.353050   0.353050   0.167920   0.167920
     2  O    0.353050   8.193024   0.000620   0.010102   0.010102
     3  O    0.353050   0.000620   8.193024   0.010102   0.010102
     4  Cl   0.167920   0.010102   0.010102  17.326117   0.002829
     5  Cl   0.167920   0.010102   0.010102   0.002829  17.326117
 Mulliken charges:
               1
     1  U    2.167938
     2  O   -0.566899
     3  O   -0.566899
     4  Cl  -0.517070
     5  Cl  -0.517070
 Sum of Mulliken charges =  -0.00000
 Mulliken charges with hydrogens summed into heavy atoms:
               1
     1  U    2.167938
     2  O   -0.566899
     3  O   -0.566899
     4  Cl  -0.517070
     5  Cl  -0.517070
 Electronic spatial extent (au):  <R**2>=           1029.9478
 Charge=              0.0000 electrons
 Dipole moment (field-independent basis, Debye):
    X=              0.0000    Y=              0.0000    Z=              5.8139  Tot=              5.8139
 Quadrupole moment (field-independent basis, Debye-Ang):
   XX=            -82.2524   YY=            -81.4922   ZZ=            -69.4699
   XY=              0.0000   XZ=              0.0000   YZ=              0.0000
 Traceless Quadrupole moment (field-independent basis, Debye-Ang):
   XX=             -4.5143   YY=             -3.7541   ZZ=              8.2683
   XY=              0.0000   XZ=              0.0000   YZ=              0.0000
 Octapole moment (field-independent basis, Debye-Ang**2):
  XXX=             -0.0000  YYY=             -0.0000  ZZZ=             53.5492  XYY=             -0.0000
  XXY=             -0.0000  XXZ=             28.6471  XZZ=             -0.0000  YZZ=              0.0000
  YYZ=              8.5587  XYZ=             -0.0000
 Hexadecapole moment (field-independent basis, Debye-Ang**3):
 XXXX=           -780.2826 YYYY=           -305.8162 ZZZZ=           -312.0229 XXXY=              0.0000
 XXXZ=              0.0000 YYYX=              0.0000 YYYZ=              0.0000 ZZZX=              0.0000
 ZZZY=              0.0000 XXYY=           -172.2360 XXZZ=           -181.5295 YYZZ=           -103.9919
 XXYZ=              0.0000 YYXZ=             -0.0000 ZZXY=              0.0000
 N-N= 5.250241825471D+02 E-N=-4.558909726388D+03  KE= 1.217199291489D+03
 Symmetry A1   KE= 5.496421051616D+02
 Symmetry A2   KE= 6.441907244083D+01
 Symmetry B1   KE= 4.502150998428D+02
 Symmetry B2   KE= 1.529230140440D+02
 Orbital energies and kinetic energies (alpha):
                                 1                 2
   1         (A1)--O        -104.803675        137.128572
   2         (B1)--O        -104.803674        137.128534
   3         (A1)--O         -20.641492         29.198681
   4         (B2)--O         -20.641486         29.198543
   5         (A1)--O         -13.223941          4.747552
   6         (B1)--O         -10.533922         21.789736
   7         (A1)--O         -10.533922         21.789675
   8         (B1)--O          -8.489134          5.137337
   9         (A1)--O          -8.488667          5.136532
  10         (B2)--O          -8.466599          5.131637
  11         (B1)--O          -8.000258         20.625240
  12         (A1)--O          -8.000258         20.625242
  13         (B1)--O          -7.999811         20.630771
  14         (A1)--O          -7.999811         20.630741
  15         (B2)--O          -7.999584         20.639818
  16         (A2)--O          -7.999584         20.639763
  17         (A1)--O          -4.497539          7.316026
  18         (B2)--O          -4.474514          7.310077
  19         (A2)--O          -4.473808          7.310679
  20         (B1)--O          -4.473498          7.335136
  21         (A1)--O          -4.472565          7.327863
  22         (A1)--O          -2.373924          2.761357
  23         (B2)--O          -1.605429          2.411639
  24         (A1)--O          -1.353775          3.002189
  25         (B1)--O          -1.292957          2.357329
  26         (A1)--O          -1.266789          2.608777
  27         (A1)--O          -1.045258          3.021373
  28         (B1)--O          -1.033954          3.079054
  29         (B2)--O          -1.003182          3.240051
  30         (B2)--O          -0.634601          2.075462
  31         (A2)--O          -0.634080          2.021921
  32         (A1)--O          -0.616105          2.617981
  33         (B1)--O          -0.593060          2.533416
  34         (A1)--O          -0.589664          2.543200
  35         (B2)--O          -0.581628          4.033229
  36         (A1)--O          -0.489434          2.260969
  37         (B1)--O          -0.481973          2.303141
  38         (A1)--O          -0.463136          2.104324
  39         (A2)--O          -0.451704          2.237173
  40         (B1)--O          -0.448467          2.187856
  41         (B2)--O          -0.441647          2.421051
  42         (A1)--V          -0.013388          0.633832
  43         (B1)--V           0.029899          1.603833
  44         (A1)--V           0.045333          3.281526
  45         (B2)--V           0.059792          5.245693
  46         (A2)--V           0.060608          5.368587
  47         (B1)--V           0.069738          4.879861
  48         (A1)--V           0.073748          2.184976
  49         (B2)--V           0.085003          0.285330
  50         (A1)--V           0.089120          0.927311
  51         (B1)--V           0.118271          2.210943
  52         (A1)--V           0.120862          3.706215
  53         (B1)--V           0.143114          4.039931
  54         (A1)--V           0.153588          3.126896
  55         (B2)--V           0.184828          3.380777
  56         (A2)--V           0.223535          1.904837
  57         (B2)--V           0.243921          2.777250
  58         (B2)--V           0.272410          1.114046
  59         (A1)--V           0.280600          0.681371
  60         (A1)--V           0.333410          1.344216
  61         (B1)--V           0.338044          1.287998
  62         (A2)--V           0.362561          1.241721
  63         (B1)--V           0.390550          1.326019
  64         (A1)--V           0.407087          1.447921
  65         (B2)--V           0.407930          1.975523
  66         (A1)--V           0.449907          1.503395
  67         (B2)--V           0.457139          1.599750
  68         (A1)--V           0.461831          1.557066
  69         (B1)--V           0.480920          1.762560
  70         (A2)--V           0.505976          1.700789
  71         (B1)--V           0.527090          1.620082
  72         (B2)--V           0.544183          1.431848
  73         (A2)--V           0.545937          1.723721
  74         (A1)--V           0.550178          1.491166
  75         (B2)--V           0.568179          2.023552
  76         (B1)--V           0.569072          1.590886
  77         (A1)--V           0.571511          1.494499
  78         (B1)--V           0.646612          1.803621
  79         (A2)--V           0.663673          1.496042
  80         (A1)--V           0.665663          1.545932
  81         (B1)--V           0.679407          1.535061
  82         (A1)--V           0.697858          1.491957
  83         (B2)--V           0.726663          1.623591
  84         (A1)--V           0.757377          1.593242
  85         (B2)--V           0.808994          1.650485
  86         (B1)--V           0.814050          2.062712
  87         (A2)--V           0.820157          1.698040
  88         (A1)--V           0.825597          2.073971
  89         (B2)--V           0.844540          1.767166
  90         (A1)--V           0.845677          2.791631
  91         (B1)--V           0.897701          1.806338
  92         (B2)--V           0.901850          1.564283
  93         (A1)--V           0.910404          1.979283
  94         (B1)--V           0.913706          1.804163
  95         (A2)--V           0.932917          1.716709
  96         (A1)--V           0.973885          2.035797
  97         (B2)--V           1.051489          1.955368
  98         (A1)--V           1.256850          4.171760
  99         (B1)--V           1.272989          4.259850
 100         (A1)--V           1.379028          3.998198
 101         (A1)--V           1.451319          3.665187
 102         (B1)--V           1.496112          3.684936
 103         (B1)--V           1.616088          4.011790
 104         (B2)--V           1.616164          4.190503
 105         (A2)--V           1.623633          4.249526
 106         (A1)--V           1.642909          3.289112
 107         (B2)--V           1.651034          3.909268
 108         (A1)--V           1.685179          4.285208
 109         (B1)--V           1.721797          4.301585
 110         (A1)--V           1.733033          3.739603
 111         (B1)--V           1.740493          3.330656
 112         (B2)--V           1.784184          3.006241
 113         (A2)--V           1.841140          3.106957
 114         (B2)--V           1.884575          3.150453
 115         (A2)--V           1.894866          3.093624
 116         (A1)--V           1.932222          3.997414
 117         (A2)--V           2.019986          4.959149
 118         (A1)--V           2.025784          4.811823
 119         (B2)--V           2.047988          4.812557
 120         (A2)--V           2.117692          4.886015
 121         (B1)--V           2.144526          4.918449
 122         (A1)--V           2.165524          4.861062
 123         (B2)--V           2.167153          4.810930
 124         (B1)--V           2.201847          5.102338
 125         (B1)--V           2.236607          4.570828
 126         (A1)--V           2.239710          4.495509
 127         (B2)--V           2.241087          4.456970
 128         (B1)--V           2.253263          4.823433
 129         (A1)--V           2.273935          4.460070
 130         (B2)--V           2.294045          4.433819
 131         (A2)--V           2.318349          4.272293
 132         (B1)--V           2.365684          3.891572
 133         (A1)--V           2.369146          4.035525
 134         (B2)--V           2.406466          4.009780
 135         (A2)--V           2.412655          3.202475
 136         (A1)--V           2.415837          3.429841
 137         (B1)--V           2.424698          3.217300
 138         (A2)--V           2.426933          3.198162
 139         (A1)--V           2.450085          3.468806
 140         (B2)--V           2.455445          3.388037
 141         (B1)--V           2.476882          4.069374
 142         (B2)--V           2.490812          3.878981
 143         (B1)--V           2.509601          3.859240
 144         (A1)--V           2.539027          5.276967
 145         (A1)--V           2.588416          4.672687
 146         (A2)--V           2.588522          6.632541
 147         (B1)--V           2.589182          6.699865
 148         (A1)--V           2.606332          6.549922
 149         (B2)--V           2.612976          4.970033
 150         (B2)--V           2.644501          6.631519
 151         (A1)--V           2.666312          5.128795
 152         (B1)--V           2.679567          5.331921
 153         (A2)--V           2.724899          5.044813
 154         (A1)--V           2.778902          5.795045
 155         (B1)--V           2.789177          5.951285
 156         (A2)--V           2.810551          5.956809
 157         (A1)--V           2.846533          6.103454
 158         (B2)--V           2.855148          6.035781
 159         (B1)--V           2.862688          6.099989
 160         (B2)--V           2.919161          6.701978
 161         (A2)--V           2.919657          6.366140
 162         (A1)--V           3.004983          7.209096
 163         (A1)--V           3.201214          7.098121
 164         (B1)--V           3.201391          7.074457
 165         (B2)--V           3.322211          7.235907
 166         (A1)--V           3.353123          7.102023
 167         (A2)--V           3.364061          7.166296
 168         (A1)--V           3.403534          7.713129
 169         (B1)--V           3.435908          7.063295
 170         (B2)--V           3.456275          7.845598
 171         (A1)--V           4.405211          8.991280
 172         (B2)--V           4.747821          9.141845
 173         (B2)--V           4.939983          9.501848
 174         (B2)--V           5.052621         12.164080
 175         (A2)--V           5.078642         11.980496
 176         (B1)--V           5.154498         12.724891
 177         (A1)--V           5.180096         12.352197
 178         (A1)--V           5.342213         12.025289
 179         (B1)--V           5.398977         12.557035
 180         (A1)--V           5.467775          7.218320
 181         (B1)--V           5.469690          7.094020
 182         (A2)--V           5.482830          6.446751
 183         (B2)--V           5.483857          6.445339
 184         (B1)--V           5.498300          6.512194
 185         (A1)--V           5.507040          6.747273
 186         (A2)--V           5.510148          8.295944
 187         (B2)--V           5.561418          7.876447
 188         (B2)--V           5.579633          7.179616
 189         (A2)--V           5.593903          7.383024
 190         (A1)--V           5.610851          9.986814
 191         (A1)--V           5.723224          7.392600
 192         (B1)--V           5.737071          7.177609
 193         (B2)--V           5.798993         11.347257
 194         (A1)--V           6.577455         13.487337
 195         (A1)--V           6.609859         11.344237
 196         (B1)--V           6.622521         12.022852
 197         (B1)--V           6.642143         13.823958
 198         (A1)--V           6.671866         13.476624
 199         (A2)--V           6.680366         15.779394
 200         (B2)--V           6.688483         15.301376
 201         (B1)--V           6.757206         14.731370
 202         (B2)--V           6.762715         10.326170
 203         (A2)--V           6.775843         11.499576
 204         (A1)--V           6.791182         14.689672
 205         (A2)--V           6.810973          9.830851
 206         (B2)--V           6.867256         10.890083
 207         (A1)--V           6.882879         13.003891
 208         (B1)--V           6.898814         13.465653
 209         (B2)--V           7.004432         11.363264
 210         (A1)--V           7.140617         11.011806
 211         (B1)--V           7.170855         10.467426
 212         (A1)--V           7.341908         11.083314
 213         (B2)--V           7.549212         14.512760
 214         (A2)--V           7.564711         14.013194
 215         (A1)--V           7.657014         15.946989
 216         (B2)--V           7.975338         12.705948
 217         (A1)--V           8.585258         16.263092
 218         (A2)--V           8.651512         16.171893
 219         (B2)--V           8.768633         16.016819
 220         (B1)--V           8.809001         16.460450
 221         (A1)--V          10.065108         17.140638
 222         (B1)--V          11.510281         33.894229
 223         (A1)--V          11.511239         33.890869
 224         (A2)--V          11.512440         33.871651
 225         (B2)--V          11.534680         33.894966
 226         (A1)--V          11.733365         33.919278
 227         (B1)--V          11.759821         33.921245
 228         (A2)--V          14.088171         34.959891
 229         (B2)--V          14.095936         34.958910
 230         (B1)--V          14.105608         34.947372
 231         (A1)--V          14.123895         34.945235
 232         (A1)--V          14.168587         34.946498
 233         (B1)--V          14.183862         34.948158
 234         (A2)--V          14.452433         34.903084
 235         (B2)--V          14.545166         34.941446
 236         (A1)--V          14.882166         34.933669
 237         (A1)--V          22.040940         43.778554
 238         (B1)--V          22.084118         43.852164
 239         (B2)--V          22.288829         44.170699
 240         (B1)--V          25.881023         44.373907
 241         (A1)--V          25.893090         44.388614
 242         (A1)--V          32.250693        438.318343
 243         (A1)--V          45.189010        108.871286
 244         (B2)--V          45.361806        109.042723
 245         (A1)--V          48.528032         92.713700
 246         (B1)--V          48.566174         92.737547
 247         (B2)--V          48.745760         92.854351
 248         (A1)--V          59.838512         43.802702
 249         (A1)--V         122.759927        236.633411
 250         (B1)--V         122.812339        236.688732
 251         (B2)--V         123.039826        236.901560
 252         (A1)--V         229.552910        139.056736
 253         (A1)--V         674.103916       1053.818836
 Total kinetic energy from orbitals= 1.217199291489D+03
 Leave Link  601 at Wed Mar  1 23:50:23 2023, MaxMem=   524288000 cpu:               1.0 elap:               0.3
 (Enter /home/pcmt/gaussian/g16.C.01/g16/l9999.exe)

 Test job not archived.
 1\1\GINC-U-0-13\SP\RMP2-RW\Gen\Cl2O2U1\ROOT\01-Mar-2023\0\\#p MP2(MaxD
 isk=500Gb, Window=(22,0))/GEN GFInput GFPrint 5D 7F IOP(6/7=3, 4/69=2,
  6/10=1) Pseudo=Read Symm=(Loose) Int=(UltraFine) Guess=(CheckPoint) S
 cf=(NoVarAcc,MaxCycle=100,conver=8) Geom=(CheckPoint) Symmetry=Loose\\
 [UO2Cl2-bent] - SP MP2 calculation at the PBE0 geometry\\0,1\U,0,0.,0.
 2485734008,0.\O,0,-1.7216134772,0.450053995,0.\O,0,1.7216134772,0.4500
 53995,0.\Cl,0,0.,-1.2218361514,-2.030575914\Cl,0,0.,-1.2218361514,2.03
 0575914\\Version=ES64L-G16RevC.01\State=1-A1\HF=-1544.2495445\MP2=-154
 5.6411117\RMSD=7.536e-09\PG=C02V [C2(U1),SGV(O2),SGV'(Cl2)]\\@


 IF IT HAPPENS, IT MUST BE POSSIBLE.

 -- THE UNNAMED LAW FROM PAUL DICKSON'S 
    "THE OFFICIAL RULES"
 Job cpu time:       0 days  0 hours  6 minutes 48.5 seconds.
 Elapsed time:       0 days  0 hours  4 minutes 13.0 seconds.
 File lengths (MBytes):  RWF=     39 Int=      0 D2E=      0 Chk=      6 Scr=      1
 Normal termination of Gaussian 16 at Wed Mar  1 23:50:23 2023.
